<?xml version="1.0" encoding="ISO-8859-1"?>
<modeling>
 <generator>
  <i name="program" type="string">vasp </i>
  <i name="version" type="string">5.3.3  </i>
  <i name="subversion" type="string">18Dez12 (build Oct  3 2015 22:05:41) complex                          parallel </i>
  <i name="platform" type="string">BGQ </i>
  <i name="date" type="string">2018 02 12 </i>
  <i name="time" type="string">10:22:57 </i>
 </generator>
 <incar>
  <i type="string" name="SYSTEM"> ZrSiO4_U</i>
  <i type="int" name="ISTART">     1</i>
  <i type="string" name="PREC">accurate</i>
  <i type="string" name="ALGO"> Normal</i>
  <i type="int" name="NSIM">     1</i>
  <i type="logical" name="ADDGRID"> T  </i>
  <i type="int" name="ICHARG">     1</i>
  <i type="int" name="IBRION">    -1</i>
  <i name="EDIFF">      0.00000001</i>
  <i type="int" name="NSW">     0</i>
  <i type="int" name="ISIF">     2</i>
  <i name="ENCUT">    600.00000000</i>
  <i type="logical" name="LREAL"> F  </i>
  <i type="logical" name="LPLANE"> F  </i>
  <i type="int" name="ISMEAR">     0</i>
  <i name="SIGMA">      0.01000000</i>
  <i type="logical" name="LWAVE"> F  </i>
  <i type="logical" name="LCHARG"> F  </i>
 </incar>
 <kpoints>
  <generation param="Gamma">
   <v type="int" name="divisions">       2        2        1 </v>
   <v name="usershift">      0.00000000       0.00000000       0.00000000 </v>
   <v name="genvec1">      0.50000000       0.00000000       0.00000000 </v>
   <v name="genvec2">      0.00000000       0.50000000       0.00000000 </v>
   <v name="genvec3">      0.00000000       0.00000000       1.00000000 </v>
   <v name="shift">      0.00000000       0.00000000       0.00000000 </v>
  </generation>
  <varray name="kpointlist" >
   <v>       0.00000000       0.00000000       0.00000000 </v>
   <v>       0.50000000       0.00000000       0.00000000 </v>
   <v>       0.00000000       0.50000000       0.00000000 </v>
   <v>       0.50000000       0.50000000       0.00000000 </v>
  </varray>
  <varray name="weights" >
   <v>       0.25000000 </v>
   <v>       0.25000000 </v>
   <v>       0.25000000 </v>
   <v>       0.25000000 </v>
  </varray>
 </kpoints>
 <parameters>
  <separator name="general" >
   <i type="string" name="SYSTEM">ZrSiO4_U</i>
   <i type="logical" name="LCOMPAT"> F  </i>
  </separator>
  <separator name="electronic" >
   <i type="string" name="PREC">accura</i>
   <i name="ENMAX">    600.00000000</i>
   <i name="ENAUG">    491.96400000</i>
   <i name="EDIFF">      0.00000001</i>
   <i type="int" name="IALGO">    38</i>
   <i type="int" name="IWAVPR">    10</i>
   <i type="int" name="NBANDS">   720</i>
   <i name="NELECT">   1200.00000000</i>
   <i type="int" name="TURBO">     0</i>
   <i type="int" name="IRESTART">     0</i>
   <i type="int" name="NREBOOT">     0</i>
   <i type="int" name="NMIN">     0</i>
   <i name="EREF">      0.00000000</i>
   <separator name="electronic smearing" >
    <i type="int" name="ISMEAR">     0</i>
    <i name="SIGMA">      0.01000000</i>
    <i name="KSPACING">      0.50000000</i>
    <i type="logical" name="KGAMMA"> T  </i>
   </separator>
   <separator name="electronic projectors" >
    <i type="logical" name="LREAL"> F  </i>
    <v name="ROPT">      0.00000000      0.00000000</v>
    <i type="int" name="LMAXPAW">  -100</i>
    <i type="int" name="LMAXMIX">     2</i>
    <i type="logical" name="NLSPLINE"> F  </i>
   </separator>
   <separator name="electronic startup" >
    <i type="int" name="ISTART">     0</i>
    <i type="int" name="ICHARG">     1</i>
    <i type="int" name="INIWAV">     1</i>
   </separator>
   <separator name="electronic spin" >
    <i type="int" name="ISPIN">     1</i>
    <i type="logical" name="LNONCOLLINEAR"> F  </i>
    <v name="MAGMOM">      1.00000000      1.00000000      1.00000000      1.00000000      1.00000000      1.00000000      1.00000000      1.00000000      1.00000000      1.00000000      1.00000000      1.00000000      1.00000000      1.00000000      1.00000000      1.00000000      1.00000000      1.00000000      1.00000000      1.00000000
      1.00000000      1.00000000      1.00000000      1.00000000      1.00000000      1.00000000      1.00000000      1.00000000      1.00000000      1.00000000      1.00000000      1.00000000      1.00000000      1.00000000      1.00000000      1.00000000      1.00000000      1.00000000      1.00000000      1.00000000
      1.00000000      1.00000000      1.00000000      1.00000000      1.00000000      1.00000000      1.00000000      1.00000000      1.00000000      1.00000000      1.00000000      1.00000000      1.00000000      1.00000000      1.00000000      1.00000000      1.00000000      1.00000000      1.00000000      1.00000000
      1.00000000      1.00000000      1.00000000      1.00000000      1.00000000      1.00000000      1.00000000      1.00000000      1.00000000      1.00000000      1.00000000      1.00000000      1.00000000      1.00000000      1.00000000      1.00000000      1.00000000      1.00000000      1.00000000      1.00000000
      1.00000000      1.00000000      1.00000000      1.00000000      1.00000000      1.00000000      1.00000000      1.00000000      1.00000000      1.00000000      1.00000000      1.00000000      1.00000000      1.00000000      1.00000000      1.00000000      1.00000000      1.00000000      1.00000000      1.00000000
      1.00000000      1.00000000      1.00000000      1.00000000      1.00000000      1.00000000      1.00000000      1.00000000      1.00000000      1.00000000      1.00000000      1.00000000      1.00000000      1.00000000      1.00000000      1.00000000      1.00000000      1.00000000      1.00000000      1.00000000
      1.00000000      1.00000000      1.00000000      1.00000000      1.00000000      1.00000000      1.00000000      1.00000000      1.00000000      1.00000000      1.00000000      1.00000000      1.00000000      1.00000000      1.00000000      1.00000000      1.00000000      1.00000000      1.00000000      1.00000000
      1.00000000      1.00000000      1.00000000      1.00000000      1.00000000      1.00000000      1.00000000      1.00000000      1.00000000      1.00000000</v>
    <i name="NUPDOWN">     -1.00000000</i>
    <i type="logical" name="LSORBIT"> F  </i>
    <v name="SAXIS">      0.00000000      0.00000000      1.00000000</v>
    <i type="logical" name="LSPIRAL"> F  </i>
    <v name="QSPIRAL">      0.00000000      0.00000000      0.00000000</v>
    <i type="logical" name="LZEROZ"> F  </i>
   </separator>
   <separator name="electronic exchange-correlation" >
    <i type="logical" name="LASPH"> F  </i>
    <i type="logical" name="LMETAGGA"> F  </i>
   </separator>
   <separator name="electronic convergence" >
    <i type="int" name="NELM">    60</i>
    <i type="int" name="NELMDL">     0</i>
    <i type="int" name="NELMIN">     2</i>
    <i name="ENINI">    600.00000000</i>
    <separator name="electronic convergence detail" >
     <i type="logical" name="LDIAG"> T  </i>
     <i type="logical" name="LSUBROT"> T  </i>
     <i name="WEIMIN">      0.00000000</i>
     <i name="EBREAK">      0.00000000</i>
     <i name="DEPER">      0.30000000</i>
     <i type="int" name="NRMM">     4</i>
     <i name="TIME">      0.40000000</i>
    </separator>
   </separator>
   <separator name="electronic mixer" >
    <i name="AMIX">      0.40000000</i>
    <i name="BMIX">      1.00000000</i>
    <i name="AMIN">      0.10000000</i>
    <i name="AMIX_MAG">      1.60000000</i>
    <i name="BMIX_MAG">      1.00000000</i>
    <separator name="electronic mixer details" >
     <i type="int" name="IMIX">     4</i>
     <i type="int" name="MAXMIX">   -45</i>
     <i name="WC">    100.00000000</i>
     <i type="int" name="INIMIX">     1</i>
     <i type="int" name="MIXPRE">     1</i>
     <i type="int" name="MREMOVE">     5</i>
    </separator>
   </separator>
   <separator name="electronic dipolcorrection" >
    <i type="logical" name="LDIPOL"> F  </i>
    <i type="logical" name="LMONO"> F  </i>
    <i type="int" name="IDIPOL">     0</i>
    <i name="EPSILON">      1.00000000</i>
    <v name="DIPOL">   -100.00000000   -100.00000000   -100.00000000</v>
    <i name="EFIELD">      0.00000000</i>
   </separator>
  </separator>
  <separator name="grids" >
   <i type="int" name="NGX">   126</i>
   <i type="int" name="NGY">   126</i>
   <i type="int" name="NGZ">   210</i>
   <i type="int" name="NGXF">   252</i>
   <i type="int" name="NGYF">   252</i>
   <i type="int" name="NGZF">   420</i>
   <i type="logical" name="ADDGRID"> T  </i>
  </separator>
  <separator name="ionic" >
   <i type="int" name="NSW">     0</i>
   <i type="int" name="IBRION">    -1</i>
   <i type="int" name="ISIF">     2</i>
   <i name="PSTRESS">      0.00000000</i>
   <i name="EDIFFG">      0.00000010</i>
   <i type="int" name="NFREE">     0</i>
   <i name="POTIM">      0.50000000</i>
   <i name="SMASS">     -3.00000000</i>
   <i name="SCALEE">      1.00000000</i>
  </separator>
  <separator name="ionic md" >
   <i name="TEBEG">      0.00010000</i>
   <i name="TEEND">      0.00010000</i>
   <i type="int" name="NBLOCK">     1</i>
   <i type="int" name="KBLOCK">     1</i>
   <i type="int" name="NPACO">   256</i>
   <i name="APACO">     16.00000000</i>
  </separator>
  <separator name="symmetry" >
   <i type="int" name="ISYM">     2</i>
   <i name="SYMPREC">      0.00001000</i>
  </separator>
  <separator name="dos" >
   <i type="logical" name="LORBIT"> T  </i>
   <v name="RWIGS">     -1.00000000     -1.00000000</v>
   <i type="int" name="NEDOS">   301</i>
   <i name="EMIN">     10.00000000</i>
   <i name="EMAX">    -10.00000000</i>
   <i name="EFERMI">      0.00000000</i>
  </separator>
  <separator name="writing" >
   <i type="int" name="NWRITE">     2</i>
   <i type="logical" name="LWAVE"> F  </i>
   <i type="logical" name="LCHARG"> F  </i>
   <i type="logical" name="LPARD"> F  </i>
   <i type="logical" name="LVTOT"> F  </i>
   <i type="logical" name="LVHAR"> F  </i>
   <i type="logical" name="LELF"> F  </i>
   <i type="logical" name="LOPTICS"> F  </i>
   <v name="STM">      0.00000000      0.00000000      0.00000000      0.00000000      0.00000000      0.00000000      0.00000000</v>
  </separator>
  <separator name="performance" >
   <i type="int" name="NPAR">     8</i>
   <i type="int" name="NSIM">     1</i>
   <i type="int" name="NBLK">    -1</i>
   <i type="logical" name="LPLANE"> F  </i>
   <i type="logical" name="LSCALAPACK"> T  </i>
   <i type="logical" name="LSCAAWARE"> F  </i>
   <i type="logical" name="LSCALU"> F  </i>
   <i type="logical" name="LASYNC"> F  </i>
   <i type="logical" name="LORBITALREAL"> F  </i>
  </separator>
  <separator name="miscellaneous" >
   <i type="int" name="IDIOT">     3</i>
   <i type="logical" name="LMUSIC"> F  </i>
   <v name="POMASS">     95.94000000     32.06600000</v>
   <v name="DARWINR">      0.00000000      0.00000000</v>
   <v name="DARWINV">      1.00000000      1.00000000</v>
   <i type="logical" name="LCORR"> T  </i>
  </separator>
  <i type="logical" name="GGA_COMPAT"> T  </i>
  <i type="logical" name="LBERRY"> F  </i>
  <i type="int" name="ICORELEVEL">     0</i>
  <i type="logical" name="LDAU"> F  </i>
  <i type="int" name="I_CONSTRAINED_M">     0</i>
  <separator name="electronic exchange-correlation" >
   <i type="string" name="GGA">--</i>
   <i type="int" name="VOSKOWN">     0</i>
   <i type="logical" name="LHFCALC"> F  </i>
   <i type="string" name="PRECFOCK"></i>
   <i type="logical" name="LSYMGRAD"> F  </i>
   <i type="logical" name="LHFONE"> F  </i>
   <i type="logical" name="LRHFCALC"> F  </i>
   <i type="logical" name="LTHOMAS"> F  </i>
   <i type="logical" name="LMODELHF"> F  </i>
   <i name="ENCUT4O">     -1.00000000</i>
   <i type="int" name="EXXOEP">     0</i>
   <i type="int" name="FOURORBIT">     0</i>
   <i name="AEXX">      0.00000000</i>
   <i name="HFALPHA">      0.00000000</i>
   <i name="MCALPHA">      0.00000000</i>
   <i name="ALDAX">      1.00000000</i>
   <i name="AGGAX">      1.00000000</i>
   <i name="ALDAC">      1.00000000</i>
   <i name="AGGAC">      1.00000000</i>
   <i type="int" name="NKREDX">     1</i>
   <i type="int" name="NKREDY">     1</i>
   <i type="int" name="NKREDZ">     1</i>
   <i type="logical" name="SHIFTRED"> F  </i>
   <i type="logical" name="ODDONLY"> F  </i>
   <i type="logical" name="EVENONLY"> F  </i>
   <i type="int" name="LMAXFOCK">     0</i>
   <i type="int" name="NMAXFOCKAE">     0</i>
   <i type="logical" name="LFOCKAEDFT"> F  </i>
   <i name="HFSCREEN">      0.00000000</i>
   <i name="HFSCREENC">      0.00000000</i>
   <i type="int" name="NBANDSGWLOW">     0</i>
  </separator>
  <separator name="vdW DFT" >
   <i type="logical" name="LUSE_VDW"> F  </i>
   <i name="Zab_VDW">     -0.84910000</i>
   <i name="PARAM1">      0.12340000</i>
   <i name="PARAM2">      1.00000000</i>
   <i name="PARAM3">      0.00000000</i>
  </separator>
  <separator name="model GW" >
   <i type="int" name="MODEL_GW">     0</i>
   <i name="MODEL_EPS0">     22.07799716</i>
   <i name="MODEL_ALPHA">      1.00000000</i>
  </separator>
  <separator name="linear response parameters" >
   <i type="logical" name="LEPSILON"> F  </i>
   <i type="logical" name="LRPA"> F  </i>
   <i type="logical" name="LNABLA"> F  </i>
   <i type="logical" name="LVEL"> F  </i>
   <i type="int" name="KINTER">     0</i>
   <i name="CSHIFT">      0.10000000</i>
   <i name="OMEGAMAX">     -1.00000000</i>
   <i name="DEG_THRESHOLD">      0.00200000</i>
  </separator>
  <separator name="orbital magnetization" >
   <i type="logical" name="NUCIND"> F  </i>
   <v name="MAGPOS">      0.00000000      0.00000000      0.00000000</v>
   <i type="logical" name="LNICSALL"> T  </i>
   <i type="logical" name="ORBITALMAG"> F  </i>
   <i type="logical" name="LMAGBLOCH"> F  </i>
   <i type="logical" name="LCHIMAG"> F  </i>
   <i type="logical" name="LGAUGE"> T  </i>
   <i type="int" name="MAGATOM">     0</i>
   <v name="MAGDIPOL">      0.00000000      0.00000000      0.00000000</v>
   <v name="AVECCONST">      0.00000000      0.00000000      0.00000000</v>
  </separator>
  <separator name="response functions" >
   <i type="logical" name="LADDER"> F  </i>
   <i type="logical" name="LFXC"> F  </i>
   <i type="logical" name="LHARTREE"> T  </i>
   <i type="int" name="IBSE">     0</i>
   <i type="logical" name="LTCTE"> F  </i>
   <i type="logical" name="LTETE"> F  </i>
   <i type="logical" name="LTRIPLET"> F  </i>
   <i type="logical" name="LFXCEPS"> F  </i>
   <i type="logical" name="L2ORDER"> F  </i>
   <i type="logical" name="LUSEW"> F  </i>
   <i name="ENCUTGW">     -2.00000000</i>
   <i name="ENCUTGWSOFT">     -2.00000000</i>
   <i name="ENCUTLF">     -1.00000000</i>
   <i type="int" name="LMAXMP2">    -1</i>
   <i name="SCISSOR">      0.00000000</i>
   <i type="int" name="NOMEGA">     0</i>
   <i type="int" name="NOMEGAR">     0</i>
   <i type="int" name="NBANDSGW">    -1</i>
   <i type="int" name="NBANDSO">    -1</i>
   <i type="int" name="NBANDSV">    -1</i>
   <i type="int" name="NELM">     1</i>
   <i type="int" name="DIM">     3</i>
   <i type="int" name="ANTIRES">     0</i>
   <i name="OMEGAMAX">    -30.00000000</i>
   <i name="OMEGATL">   -200.00000000</i>
   <i type="int" name="OMEGAGRID">     0</i>
   <i name="CSHIFT">     -0.10000000</i>
   <i type="logical" name="SELFENERGY"> F  </i>
   <i type="logical" name="LSPECTRAL"> F  </i>
   <i type="logical" name="ODDONLYGW"> F  </i>
   <i type="logical" name="EVENONLYGW"> F  </i>
   <i type="int" name="NKREDLFX">     1</i>
   <i type="int" name="NKREDLFY">     1</i>
   <i type="int" name="NKREDLFZ">     1</i>
   <i type="int" name="MAXMEM">  1800</i>
   <i type="int" name="TELESCOPE">     0</i>
  </separator>
 </parameters>
 <atominfo>
  <atoms>     150 </atoms>
  <types>       2 </types>
  <array name="atoms" >
   <dimension dim="1">ion</dimension>
   <field type="string">element</field>
   <field type="int">atomtype</field>
   <set>
    <rc><c>Mo</c><c>   1</c></rc>
    <rc><c>Mo</c><c>   1</c></rc>
    <rc><c>Mo</c><c>   1</c></rc>
    <rc><c>Mo</c><c>   1</c></rc>
    <rc><c>Mo</c><c>   1</c></rc>
    <rc><c>Mo</c><c>   1</c></rc>
    <rc><c>Mo</c><c>   1</c></rc>
    <rc><c>Mo</c><c>   1</c></rc>
    <rc><c>Mo</c><c>   1</c></rc>
    <rc><c>Mo</c><c>   1</c></rc>
    <rc><c>Mo</c><c>   1</c></rc>
    <rc><c>Mo</c><c>   1</c></rc>
    <rc><c>Mo</c><c>   1</c></rc>
    <rc><c>Mo</c><c>   1</c></rc>
    <rc><c>Mo</c><c>   1</c></rc>
    <rc><c>Mo</c><c>   1</c></rc>
    <rc><c>Mo</c><c>   1</c></rc>
    <rc><c>Mo</c><c>   1</c></rc>
    <rc><c>Mo</c><c>   1</c></rc>
    <rc><c>Mo</c><c>   1</c></rc>
    <rc><c>Mo</c><c>   1</c></rc>
    <rc><c>Mo</c><c>   1</c></rc>
    <rc><c>Mo</c><c>   1</c></rc>
    <rc><c>Mo</c><c>   1</c></rc>
    <rc><c>Mo</c><c>   1</c></rc>
    <rc><c>Mo</c><c>   1</c></rc>
    <rc><c>Mo</c><c>   1</c></rc>
    <rc><c>Mo</c><c>   1</c></rc>
    <rc><c>Mo</c><c>   1</c></rc>
    <rc><c>Mo</c><c>   1</c></rc>
    <rc><c>Mo</c><c>   1</c></rc>
    <rc><c>Mo</c><c>   1</c></rc>
    <rc><c>Mo</c><c>   1</c></rc>
    <rc><c>Mo</c><c>   1</c></rc>
    <rc><c>Mo</c><c>   1</c></rc>
    <rc><c>Mo</c><c>   1</c></rc>
    <rc><c>Mo</c><c>   1</c></rc>
    <rc><c>Mo</c><c>   1</c></rc>
    <rc><c>Mo</c><c>   1</c></rc>
    <rc><c>Mo</c><c>   1</c></rc>
    <rc><c>Mo</c><c>   1</c></rc>
    <rc><c>Mo</c><c>   1</c></rc>
    <rc><c>Mo</c><c>   1</c></rc>
    <rc><c>Mo</c><c>   1</c></rc>
    <rc><c>Mo</c><c>   1</c></rc>
    <rc><c>Mo</c><c>   1</c></rc>
    <rc><c>Mo</c><c>   1</c></rc>
    <rc><c>Mo</c><c>   1</c></rc>
    <rc><c>Mo</c><c>   1</c></rc>
    <rc><c>Mo</c><c>   1</c></rc>
    <rc><c>S </c><c>   2</c></rc>
    <rc><c>S </c><c>   2</c></rc>
    <rc><c>S </c><c>   2</c></rc>
    <rc><c>S </c><c>   2</c></rc>
    <rc><c>S </c><c>   2</c></rc>
    <rc><c>S </c><c>   2</c></rc>
    <rc><c>S </c><c>   2</c></rc>
    <rc><c>S </c><c>   2</c></rc>
    <rc><c>S </c><c>   2</c></rc>
    <rc><c>S </c><c>   2</c></rc>
    <rc><c>S </c><c>   2</c></rc>
    <rc><c>S </c><c>   2</c></rc>
    <rc><c>S </c><c>   2</c></rc>
    <rc><c>S </c><c>   2</c></rc>
    <rc><c>S </c><c>   2</c></rc>
    <rc><c>S </c><c>   2</c></rc>
    <rc><c>S </c><c>   2</c></rc>
    <rc><c>S </c><c>   2</c></rc>
    <rc><c>S </c><c>   2</c></rc>
    <rc><c>S </c><c>   2</c></rc>
    <rc><c>S </c><c>   2</c></rc>
    <rc><c>S </c><c>   2</c></rc>
    <rc><c>S </c><c>   2</c></rc>
    <rc><c>S </c><c>   2</c></rc>
    <rc><c>S </c><c>   2</c></rc>
    <rc><c>S </c><c>   2</c></rc>
    <rc><c>S </c><c>   2</c></rc>
    <rc><c>S </c><c>   2</c></rc>
    <rc><c>S </c><c>   2</c></rc>
    <rc><c>S </c><c>   2</c></rc>
    <rc><c>S </c><c>   2</c></rc>
    <rc><c>S </c><c>   2</c></rc>
    <rc><c>S </c><c>   2</c></rc>
    <rc><c>S </c><c>   2</c></rc>
    <rc><c>S </c><c>   2</c></rc>
    <rc><c>S </c><c>   2</c></rc>
    <rc><c>S </c><c>   2</c></rc>
    <rc><c>S </c><c>   2</c></rc>
    <rc><c>S </c><c>   2</c></rc>
    <rc><c>S </c><c>   2</c></rc>
    <rc><c>S </c><c>   2</c></rc>
    <rc><c>S </c><c>   2</c></rc>
    <rc><c>S </c><c>   2</c></rc>
    <rc><c>S </c><c>   2</c></rc>
    <rc><c>S </c><c>   2</c></rc>
    <rc><c>S </c><c>   2</c></rc>
    <rc><c>S </c><c>   2</c></rc>
    <rc><c>S </c><c>   2</c></rc>
    <rc><c>S </c><c>   2</c></rc>
    <rc><c>S </c><c>   2</c></rc>
    <rc><c>S </c><c>   2</c></rc>
    <rc><c>S </c><c>   2</c></rc>
    <rc><c>S </c><c>   2</c></rc>
    <rc><c>S </c><c>   2</c></rc>
    <rc><c>S </c><c>   2</c></rc>
    <rc><c>S </c><c>   2</c></rc>
    <rc><c>S </c><c>   2</c></rc>
    <rc><c>S </c><c>   2</c></rc>
    <rc><c>S </c><c>   2</c></rc>
    <rc><c>S </c><c>   2</c></rc>
    <rc><c>S </c><c>   2</c></rc>
    <rc><c>S </c><c>   2</c></rc>
    <rc><c>S </c><c>   2</c></rc>
    <rc><c>S </c><c>   2</c></rc>
    <rc><c>S </c><c>   2</c></rc>
    <rc><c>S </c><c>   2</c></rc>
    <rc><c>S </c><c>   2</c></rc>
    <rc><c>S </c><c>   2</c></rc>
    <rc><c>S </c><c>   2</c></rc>
    <rc><c>S </c><c>   2</c></rc>
    <rc><c>S </c><c>   2</c></rc>
    <rc><c>S </c><c>   2</c></rc>
    <rc><c>S </c><c>   2</c></rc>
    <rc><c>S </c><c>   2</c></rc>
    <rc><c>S </c><c>   2</c></rc>
    <rc><c>S </c><c>   2</c></rc>
    <rc><c>S </c><c>   2</c></rc>
    <rc><c>S </c><c>   2</c></rc>
    <rc><c>S </c><c>   2</c></rc>
    <rc><c>S </c><c>   2</c></rc>
    <rc><c>S </c><c>   2</c></rc>
    <rc><c>S </c><c>   2</c></rc>
    <rc><c>S </c><c>   2</c></rc>
    <rc><c>S </c><c>   2</c></rc>
    <rc><c>S </c><c>   2</c></rc>
    <rc><c>S </c><c>   2</c></rc>
    <rc><c>S </c><c>   2</c></rc>
    <rc><c>S </c><c>   2</c></rc>
    <rc><c>S </c><c>   2</c></rc>
    <rc><c>S </c><c>   2</c></rc>
    <rc><c>S </c><c>   2</c></rc>
    <rc><c>S </c><c>   2</c></rc>
    <rc><c>S </c><c>   2</c></rc>
    <rc><c>S </c><c>   2</c></rc>
    <rc><c>S </c><c>   2</c></rc>
    <rc><c>S </c><c>   2</c></rc>
    <rc><c>S </c><c>   2</c></rc>
    <rc><c>S </c><c>   2</c></rc>
    <rc><c>S </c><c>   2</c></rc>
    <rc><c>S </c><c>   2</c></rc>
   </set>
  </array>
  <array name="atomtypes" >
   <dimension dim="1">type</dimension>
   <field type="int">atomspertype</field>
   <field type="string">element</field>
   <field>mass</field>
   <field>valence</field>
   <field type="string">pseudopotential</field>
   <set>
    <rc><c>  50</c><c>Mo</c><c>     95.94000000</c><c>     12.00000000</c><c> PAW Mo_pv 08Jan2002                    </c></rc>
    <rc><c> 100</c><c>S </c><c>     32.06600000</c><c>      6.00000000</c><c>  PAW S_h 21Jan2003                     </c></rc>
   </set>
  </array>
 </atominfo>
 <structure name="initialpos" >
  <crystal>
   <varray name="basis" >
    <v>      15.65451448      -0.00000001       0.00000000 </v>
    <v>      -7.82725475      13.55720592       0.00000000 </v>
    <v>       0.00000000       0.00000000      26.00697779 </v>
   </varray>
   <i name="volume">   5519.49928921 </i>
   <varray name="rec_basis" >
    <v>       0.06387934       0.03688074       0.00000000 </v>
    <v>       0.00000000       0.07376151       0.00000000 </v>
    <v>       0.00000000       0.00000000       0.03845122 </v>
   </varray>
  </crystal>
  <varray name="positions" >
   <v>       0.06699610       0.13333333       0.17337052 </v>
   <v>       0.26666667       0.13333333       0.17304109 </v>
   <v>       0.46666667       0.13333333       0.17304109 </v>
   <v>       0.66666667       0.13333333       0.17304109 </v>
   <v>       0.86666667       0.13333333       0.17304109 </v>
   <v>       0.06666667       0.33333333       0.17304109 </v>
   <v>       0.26666667       0.33333333       0.17304109 </v>
   <v>       0.46666667       0.33333333       0.17304109 </v>
   <v>       0.66666667       0.33333333       0.17304109 </v>
   <v>       0.86666667       0.33333333       0.17304109 </v>
   <v>       0.06666667       0.53333333       0.17304109 </v>
   <v>       0.26666667       0.53333333       0.17304109 </v>
   <v>       0.46666667       0.53333333       0.17304109 </v>
   <v>       0.66666667       0.53333333       0.17304109 </v>
   <v>       0.86666667       0.53333333       0.17304109 </v>
   <v>       0.06666667       0.73333333       0.17304109 </v>
   <v>       0.26666667       0.73333333       0.17304109 </v>
   <v>       0.46666667       0.73333333       0.17304109 </v>
   <v>       0.66666667       0.73333333       0.17304109 </v>
   <v>       0.86666667       0.73333333       0.17304109 </v>
   <v>       0.06666667       0.93333333       0.17304109 </v>
   <v>       0.26666667       0.93333333       0.17304109 </v>
   <v>       0.46666667       0.93333333       0.17304109 </v>
   <v>       0.66666667       0.93333333       0.17304109 </v>
   <v>       0.86666667       0.93333333       0.17304109 </v>
   <v>       0.13333333       0.06666667       0.40532935 </v>
   <v>       0.33333333       0.06666667       0.40532935 </v>
   <v>       0.53333333       0.06666667       0.40532935 </v>
   <v>       0.73333333       0.06666667       0.40532935 </v>
   <v>       0.93333333       0.06666667       0.40532935 </v>
   <v>       0.13333333       0.26666667       0.40532935 </v>
   <v>       0.33333333       0.26666667       0.40532935 </v>
   <v>       0.53333333       0.26666667       0.40532935 </v>
   <v>       0.73333333       0.26666667       0.40532935 </v>
   <v>       0.93333333       0.26666667       0.40532935 </v>
   <v>       0.13333333       0.46666667       0.40532935 </v>
   <v>       0.33333333       0.46666667       0.40532935 </v>
   <v>       0.53333333       0.46666667       0.40532935 </v>
   <v>       0.73333333       0.46666667       0.40532935 </v>
   <v>       0.93333333       0.46666667       0.40532935 </v>
   <v>       0.13333333       0.66666667       0.40532935 </v>
   <v>       0.33333333       0.66666667       0.40532935 </v>
   <v>       0.53333333       0.66666667       0.40532935 </v>
   <v>       0.73333333       0.66666667       0.40532935 </v>
   <v>       0.93333333       0.66666667       0.40532935 </v>
   <v>       0.13333333       0.86666667       0.40532935 </v>
   <v>       0.33333333       0.86666667       0.40532935 </v>
   <v>       0.53333333       0.86666667       0.40532935 </v>
   <v>       0.73333333       0.86666667       0.40532935 </v>
   <v>       0.93333333       0.86666667       0.40532935 </v>
   <v>       0.13333333       0.06666667       0.11318662 </v>
   <v>       0.33333333       0.06666667       0.11318662 </v>
   <v>       0.53333333       0.06666667       0.11318662 </v>
   <v>       0.73333333       0.06666667       0.11318662 </v>
   <v>       0.93333333       0.06666667       0.11318662 </v>
   <v>       0.13333333       0.26666667       0.11318662 </v>
   <v>       0.33333333       0.26666667       0.11318662 </v>
   <v>       0.53333333       0.26666667       0.11318662 </v>
   <v>       0.73333333       0.26666667       0.11318662 </v>
   <v>       0.93333333       0.26666667       0.11318662 </v>
   <v>       0.13333333       0.46666667       0.11318662 </v>
   <v>       0.33333333       0.46666667       0.11318662 </v>
   <v>       0.53333333       0.46666667       0.11318662 </v>
   <v>       0.73333333       0.46666667       0.11318662 </v>
   <v>       0.93333333       0.46666667       0.11318662 </v>
   <v>       0.13333333       0.66666667       0.11318662 </v>
   <v>       0.33333333       0.66666667       0.11318662 </v>
   <v>       0.53333333       0.66666667       0.11318662 </v>
   <v>       0.73333333       0.66666667       0.11318662 </v>
   <v>       0.93333333       0.66666667       0.11318662 </v>
   <v>       0.13333333       0.86666667       0.11318662 </v>
   <v>       0.33333333       0.86666667       0.11318662 </v>
   <v>       0.53333333       0.86666667       0.11318662 </v>
   <v>       0.73333333       0.86666667       0.11318662 </v>
   <v>       0.93333333       0.86666667       0.11318662 </v>
   <v>       0.13333333       0.06666667       0.23301500 </v>
   <v>       0.33333333       0.06666667       0.23301500 </v>
   <v>       0.53333333       0.06666667       0.23301500 </v>
   <v>       0.73333333       0.06666667       0.23301500 </v>
   <v>       0.93333333       0.06666667       0.23301500 </v>
   <v>       0.13333333       0.26666667       0.23301500 </v>
   <v>       0.33333333       0.26666667       0.23301500 </v>
   <v>       0.53333333       0.26666667       0.23301500 </v>
   <v>       0.73333333       0.26666667       0.23301500 </v>
   <v>       0.93333333       0.26666667       0.23301500 </v>
   <v>       0.13333333       0.46666667       0.23301500 </v>
   <v>       0.33333333       0.46666667       0.23301500 </v>
   <v>       0.53333333       0.46666667       0.23301500 </v>
   <v>       0.73333333       0.46666667       0.23301500 </v>
   <v>       0.93333333       0.46666667       0.23301500 </v>
   <v>       0.13333333       0.66666667       0.23301500 </v>
   <v>       0.33333333       0.66666667       0.23301500 </v>
   <v>       0.53333333       0.66666667       0.23301500 </v>
   <v>       0.73333333       0.66666667       0.23301500 </v>
   <v>       0.93333333       0.66666667       0.23301500 </v>
   <v>       0.13333333       0.86666667       0.23301500 </v>
   <v>       0.33333333       0.86666667       0.23301500 </v>
   <v>       0.53333333       0.86666667       0.23301500 </v>
   <v>       0.73333333       0.86666667       0.23301500 </v>
   <v>       0.93333333       0.86666667       0.23301500 </v>
   <v>       0.06666667       0.13333333       0.34535543 </v>
   <v>       0.26666667       0.13333333       0.34535543 </v>
   <v>       0.46666667       0.13333333       0.34535543 </v>
   <v>       0.66666667       0.13333333       0.34535543 </v>
   <v>       0.86666667       0.13333333       0.34535543 </v>
   <v>       0.06666667       0.33333333       0.34535543 </v>
   <v>       0.26666667       0.33333333       0.34535543 </v>
   <v>       0.46666667       0.33333333       0.34535543 </v>
   <v>       0.66666667       0.33333333       0.34535543 </v>
   <v>       0.86666667       0.33333333       0.34535543 </v>
   <v>       0.06666667       0.53333333       0.34535543 </v>
   <v>       0.26666667       0.53333333       0.34535543 </v>
   <v>       0.46666667       0.53333333       0.34535543 </v>
   <v>       0.66666667       0.53333333       0.34535543 </v>
   <v>       0.86666667       0.53333333       0.34535543 </v>
   <v>       0.06666667       0.73333333       0.34535543 </v>
   <v>       0.26666667       0.73333333       0.34535543 </v>
   <v>       0.46666667       0.73333333       0.34535543 </v>
   <v>       0.66666667       0.73333333       0.34535543 </v>
   <v>       0.86666667       0.73333333       0.34535543 </v>
   <v>       0.06666667       0.93333333       0.34535543 </v>
   <v>       0.26666667       0.93333333       0.34535543 </v>
   <v>       0.46666667       0.93333333       0.34535543 </v>
   <v>       0.66666667       0.93333333       0.34535543 </v>
   <v>       0.86666667       0.93333333       0.34535543 </v>
   <v>       0.06666667       0.13333333       0.46518382 </v>
   <v>       0.26666667       0.13333333       0.46518382 </v>
   <v>       0.46666667       0.13333333       0.46518382 </v>
   <v>       0.66666667       0.13333333       0.46518382 </v>
   <v>       0.86666667       0.13333333       0.46518382 </v>
   <v>       0.06666667       0.33333333       0.46518382 </v>
   <v>       0.26666667       0.33333333       0.46518382 </v>
   <v>       0.46666667       0.33333333       0.46518382 </v>
   <v>       0.66666667       0.33333333       0.46518382 </v>
   <v>       0.86666667       0.33333333       0.46518382 </v>
   <v>       0.06666667       0.53333333       0.46518382 </v>
   <v>       0.26666667       0.53333333       0.46518382 </v>
   <v>       0.46666667       0.53333333       0.46518382 </v>
   <v>       0.66666667       0.53333333       0.46518382 </v>
   <v>       0.86666667       0.53333333       0.46518382 </v>
   <v>       0.06666667       0.73333333       0.46518382 </v>
   <v>       0.26666667       0.73333333       0.46518382 </v>
   <v>       0.46666667       0.73333333       0.46518382 </v>
   <v>       0.66666667       0.73333333       0.46518382 </v>
   <v>       0.86666667       0.73333333       0.46518382 </v>
   <v>       0.06666667       0.93333333       0.46518382 </v>
   <v>       0.26666667       0.93333333       0.46518382 </v>
   <v>       0.46666667       0.93333333       0.46518382 </v>
   <v>       0.66666667       0.93333333       0.46518382 </v>
   <v>       0.86666667       0.93333333       0.46518382 </v>
  </varray>
 </structure>
 <calculation>
  <scstep>
   <time name="dav">******** 1582.32</time>
   <time name="total">******** 1586.96</time>
   <energy>
    <i name="alphaZ">   2096.25038681 </i>
    <i name="ewald"> 360988.87635032 </i>
    <i name="hartreedc">-445147.64200372 </i>
    <i name="XCdc">   2153.01783067 </i>
    <i name="pawpsdc">  49961.83574437 </i>
    <i name="pawaedc"> -47918.29686678 </i>
    <i name="eentropy">     -0.00291222 </i>
    <i name="bandstr">  -3160.39757184 </i>
    <i name="atom">  92113.52951886 </i>
    <i name="e_fr_energy">  11087.17047645 </i>
    <i name="e_wo_entrp">  11087.17338867 </i>
    <i name="e_0_energy">  11087.17193256 </i>
   </energy>
  </scstep>
  <scstep>
   <time name="dav">******** 1648.23</time>
   <time name="total"> 1648.42 1648.42</time>
   <energy>
    <i name="e_fr_energy">   -269.34910940 </i>
    <i name="e_wo_entrp">   -269.34910940 </i>
    <i name="e_0_energy">   -269.34910940 </i>
   </energy>
  </scstep>
  <scstep>
   <time name="dav">******** 1641.88</time>
   <time name="total"> 1642.09 1642.09</time>
   <energy>
    <i name="e_fr_energy">  -1232.57859762 </i>
    <i name="e_wo_entrp">  -1232.57859762 </i>
    <i name="e_0_energy">  -1232.57859762 </i>
   </energy>
  </scstep>
  <scstep>
   <time name="dav">******** 1806.82</time>
   <time name="total"> 1807.05 1807.05</time>
   <energy>
    <i name="e_fr_energy">  -1284.09408823 </i>
    <i name="e_wo_entrp">  -1284.09408823 </i>
    <i name="e_0_energy">  -1284.09408823 </i>
   </energy>
  </scstep>
  <scstep>
   <time name="dav">******** 1993.56</time>
   <time name="total">85769.61 2074.76</time>
   <energy>
    <i name="e_fr_energy">  -1286.12899544 </i>
    <i name="e_wo_entrp">  -1286.12899544 </i>
    <i name="e_0_energy">  -1286.12899544 </i>
   </energy>
  </scstep>
  <scstep>
   <time name="dav">******** 1802.00</time>
   <time name="total"> 1887.41 1887.41</time>
   <energy>
    <i name="e_fr_energy">  -1231.42333409 </i>
    <i name="e_wo_entrp">  -1231.42333409 </i>
    <i name="e_0_energy">  -1231.42333409 </i>
   </energy>
  </scstep>
  <scstep>
   <time name="dav">******** 1761.09</time>
   <time name="total"> 1846.88 1846.88</time>
   <energy>
    <i name="e_fr_energy">  -1216.81712009 </i>
    <i name="e_wo_entrp">  -1216.81712009 </i>
    <i name="e_0_energy">  -1216.81712009 </i>
   </energy>
  </scstep>
  <scstep>
   <time name="dav">******** 1665.56</time>
   <time name="total"> 1751.15 1751.15</time>
   <energy>
    <i name="e_fr_energy">  -1214.54706103 </i>
    <i name="e_wo_entrp">  -1214.54706103 </i>
    <i name="e_0_energy">  -1214.54706103 </i>
   </energy>
  </scstep>
  <scstep>
   <time name="dav">******** 1939.83</time>
   <time name="total"> 2025.20 2025.20</time>
   <energy>
    <i name="e_fr_energy">  -1214.46695133 </i>
    <i name="e_wo_entrp">  -1214.46695133 </i>
    <i name="e_0_energy">  -1214.46695133 </i>
   </energy>
  </scstep>
  <scstep>
   <time name="dav">******** 1803.64</time>
   <time name="total"> 1888.92 1888.92</time>
   <energy>
    <i name="e_fr_energy">  -1214.41135070 </i>
    <i name="e_wo_entrp">  -1214.41135070 </i>
    <i name="e_0_energy">  -1214.41135070 </i>
   </energy>
  </scstep>
  <scstep>
   <time name="dav">******** 1779.40</time>
   <time name="total"> 1864.88 1864.88</time>
   <energy>
    <i name="e_fr_energy">  -1214.40476702 </i>
    <i name="e_wo_entrp">  -1214.40476702 </i>
    <i name="e_0_energy">  -1214.40476702 </i>
   </energy>
  </scstep>
  <scstep>
   <time name="dav">******** 1743.99</time>
   <time name="total"> 1829.36 1829.36</time>
   <energy>
    <i name="e_fr_energy">  -1214.40595137 </i>
    <i name="e_wo_entrp">  -1214.40595137 </i>
    <i name="e_0_energy">  -1214.40595137 </i>
   </energy>
  </scstep>
  <scstep>
   <time name="dav">******** 1664.55</time>
   <time name="total"> 1750.79 1750.79</time>
   <energy>
    <i name="e_fr_energy">  -1214.41013510 </i>
    <i name="e_wo_entrp">  -1214.41013510 </i>
    <i name="e_0_energy">  -1214.41013510 </i>
   </energy>
  </scstep>
  <scstep>
   <time name="dav">******** 1646.93</time>
   <time name="total"> 1733.21 1733.21</time>
   <energy>
    <i name="e_fr_energy">  -1214.41398432 </i>
    <i name="e_wo_entrp">  -1214.41398432 </i>
    <i name="e_0_energy">  -1214.41398432 </i>
   </energy>
  </scstep>
  <scstep>
   <time name="dav">******** 1753.91</time>
   <time name="total"> 1840.00 1840.00</time>
   <energy>
    <i name="e_fr_energy">  -1214.41742502 </i>
    <i name="e_wo_entrp">  -1214.41742502 </i>
    <i name="e_0_energy">  -1214.41742502 </i>
   </energy>
  </scstep>
  <scstep>
   <time name="dav">******** 1666.97</time>
   <time name="total"> 1752.55 1752.55</time>
   <energy>
    <i name="e_fr_energy">  -1214.42058131 </i>
    <i name="e_wo_entrp">  -1214.42058131 </i>
    <i name="e_0_energy">  -1214.42058131 </i>
   </energy>
  </scstep>
  <scstep>
   <time name="dav">******** 1612.81</time>
   <time name="total"> 1698.17 1698.17</time>
   <energy>
    <i name="e_fr_energy">  -1214.42303444 </i>
    <i name="e_wo_entrp">  -1214.42303444 </i>
    <i name="e_0_energy">  -1214.42303444 </i>
   </energy>
  </scstep>
  <scstep>
   <time name="dav">******** 1685.50</time>
   <time name="total"> 1770.85 1770.85</time>
   <energy>
    <i name="e_fr_energy">  -1214.42391493 </i>
    <i name="e_wo_entrp">  -1214.42391493 </i>
    <i name="e_0_energy">  -1214.42391493 </i>
   </energy>
  </scstep>
  <scstep>
   <time name="dav">******** 1595.85</time>
   <time name="total"> 1681.06 1681.06</time>
   <energy>
    <i name="e_fr_energy">  -1214.42460378 </i>
    <i name="e_wo_entrp">  -1214.42460378 </i>
    <i name="e_0_energy">  -1214.42460378 </i>
   </energy>
  </scstep>
  <scstep>
   <time name="dav">******** 1620.15</time>
   <time name="total"> 1705.49 1705.49</time>
   <energy>
    <i name="e_fr_energy">  -1214.42493308 </i>
    <i name="e_wo_entrp">  -1214.42493308 </i>
    <i name="e_0_energy">  -1214.42493308 </i>
   </energy>
  </scstep>
  <scstep>
   <time name="dav">******** 1608.46</time>
   <time name="total"> 1693.82 1693.82</time>
   <energy>
    <i name="e_fr_energy">  -1214.42502434 </i>
    <i name="e_wo_entrp">  -1214.42502434 </i>
    <i name="e_0_energy">  -1214.42502434 </i>
   </energy>
  </scstep>
  <scstep>
   <time name="dav">******** 1625.47</time>
   <time name="total"> 1710.60 1710.60</time>
   <energy>
    <i name="e_fr_energy">  -1214.42513537 </i>
    <i name="e_wo_entrp">  -1214.42513537 </i>
    <i name="e_0_energy">  -1214.42513537 </i>
   </energy>
  </scstep>
  <scstep>
   <time name="dav">******** 1599.24</time>
   <time name="total"> 1684.21 1684.21</time>
   <energy>
    <i name="e_fr_energy">  -1214.42527161 </i>
    <i name="e_wo_entrp">  -1214.42527161 </i>
    <i name="e_0_energy">  -1214.42527161 </i>
   </energy>
  </scstep>
  <scstep>
   <time name="dav">******** 1608.34</time>
   <time name="total"> 1693.35 1693.35</time>
   <energy>
    <i name="e_fr_energy">  -1214.42540743 </i>
    <i name="e_wo_entrp">  -1214.42540743 </i>
    <i name="e_0_energy">  -1214.42540743 </i>
   </energy>
  </scstep>
  <scstep>
   <time name="dav">******** 1538.45</time>
   <time name="total"> 1623.54 1623.54</time>
   <energy>
    <i name="e_fr_energy">  -1214.42549154 </i>
    <i name="e_wo_entrp">  -1214.42549154 </i>
    <i name="e_0_energy">  -1214.42549154 </i>
   </energy>
  </scstep>
  <scstep>
   <time name="dav">******** 1516.29</time>
   <time name="total"> 1601.32 1601.32</time>
   <energy>
    <i name="e_fr_energy">  -1214.42553590 </i>
    <i name="e_wo_entrp">  -1214.42553590 </i>
    <i name="e_0_energy">  -1214.42553590 </i>
   </energy>
  </scstep>
  <scstep>
   <time name="dav">******** 1512.32</time>
   <time name="total"> 1597.37 1597.37</time>
   <energy>
    <i name="e_fr_energy">  -1214.42556866 </i>
    <i name="e_wo_entrp">  -1214.42556866 </i>
    <i name="e_0_energy">  -1214.42556866 </i>
   </energy>
  </scstep>
  <scstep>
   <time name="dav">******** 1373.73</time>
   <time name="total"> 1458.75 1458.75</time>
   <energy>
    <i name="e_fr_energy">  -1214.42557872 </i>
    <i name="e_wo_entrp">  -1214.42557872 </i>
    <i name="e_0_energy">  -1214.42557872 </i>
   </energy>
  </scstep>
  <scstep>
   <time name="dav">******** 1330.60</time>
   <time name="total"> 1415.66 1415.66</time>
   <energy>
    <i name="e_fr_energy">  -1214.42558309 </i>
    <i name="e_wo_entrp">  -1214.42558309 </i>
    <i name="e_0_energy">  -1214.42558309 </i>
   </energy>
  </scstep>
  <scstep>
   <time name="dav">******** 1219.25</time>
   <time name="total"> 1304.34 1304.34</time>
   <energy>
    <i name="e_fr_energy">  -1214.42558358 </i>
    <i name="e_wo_entrp">  -1214.42558358 </i>
    <i name="e_0_energy">  -1214.42558358 </i>
   </energy>
  </scstep>
  <scstep>
   <time name="dav">******** 1130.72</time>
   <time name="total"> 1215.78 1215.78</time>
   <energy>
    <i name="e_fr_energy">  -1214.42558383 </i>
    <i name="e_wo_entrp">  -1214.42558383 </i>
    <i name="e_0_energy">  -1214.42558383 </i>
   </energy>
  </scstep>
  <scstep>
   <time name="dav">******** 1150.39</time>
   <time name="total"> 1235.52 1235.52</time>
   <energy>
    <i name="e_fr_energy">  -1214.42558403 </i>
    <i name="e_wo_entrp">  -1214.42558403 </i>
    <i name="e_0_energy">  -1214.42558403 </i>
   </energy>
  </scstep>
  <scstep>
   <time name="dav">******** 1101.75</time>
   <time name="total"> 1186.91 1186.91</time>
   <energy>
    <i name="e_fr_energy">  -1214.42558408 </i>
    <i name="e_wo_entrp">  -1214.42558408 </i>
    <i name="e_0_energy">  -1214.42558408 </i>
   </energy>
  </scstep>
  <scstep>
   <time name="dav">******** 1065.60</time>
   <time name="total"> 1150.66 1150.66</time>
   <energy>
    <i name="e_fr_energy">  -1214.42558409 </i>
    <i name="e_wo_entrp">  -1214.42558409 </i>
    <i name="e_0_energy">  -1214.42558409 </i>
   </energy>
  </scstep>
  <scstep>
   <time name="dav">******** 1046.55</time>
   <time name="total">******** 1051.09</time>
   <energy>
    <i name="alphaZ">   2096.25038681 </i>
    <i name="ewald"> 360988.87635032 </i>
    <i name="hartreedc">-445020.41177543 </i>
    <i name="XCdc">   2130.73772861 </i>
    <i name="pawpsdc">  53564.91345225 </i>
    <i name="pawaedc"> -51761.75351002 </i>
    <i name="eentropy">      0.00000000 </i>
    <i name="bandstr"> -15326.56773549 </i>
    <i name="atom">  92113.52951886 </i>
    <i name="e_fr_energy">  -1214.42558410 </i>
    <i name="e_wo_entrp">  -1214.42558410 </i>
    <i name="e_0_energy">  -1214.42558410 </i>
   </energy>
  </scstep>
  <structure>
   <crystal>
    <varray name="basis" >
     <v>      15.65451448      -0.00000001       0.00000000 </v>
     <v>      -7.82725475      13.55720592       0.00000000 </v>
     <v>       0.00000000       0.00000000      26.00697779 </v>
    </varray>
    <i name="volume">   5519.49928921 </i>
    <varray name="rec_basis" >
     <v>       0.06387934       0.03688074       0.00000000 </v>
     <v>       0.00000000       0.07376151       0.00000000 </v>
     <v>       0.00000000       0.00000000       0.03845122 </v>
    </varray>
   </crystal>
   <varray name="positions" >
    <v>       0.06699610       0.13333333       0.17337052 </v>
    <v>       0.26666667       0.13333333       0.17304109 </v>
    <v>       0.46666667       0.13333333       0.17304109 </v>
    <v>       0.66666667       0.13333333       0.17304109 </v>
    <v>       0.86666667       0.13333333       0.17304109 </v>
    <v>       0.06666667       0.33333333       0.17304109 </v>
    <v>       0.26666667       0.33333333       0.17304109 </v>
    <v>       0.46666667       0.33333333       0.17304109 </v>
    <v>       0.66666667       0.33333333       0.17304109 </v>
    <v>       0.86666667       0.33333333       0.17304109 </v>
    <v>       0.06666667       0.53333333       0.17304109 </v>
    <v>       0.26666667       0.53333333       0.17304109 </v>
    <v>       0.46666667       0.53333333       0.17304109 </v>
    <v>       0.66666667       0.53333333       0.17304109 </v>
    <v>       0.86666667       0.53333333       0.17304109 </v>
    <v>       0.06666667       0.73333333       0.17304109 </v>
    <v>       0.26666667       0.73333333       0.17304109 </v>
    <v>       0.46666667       0.73333333       0.17304109 </v>
    <v>       0.66666667       0.73333333       0.17304109 </v>
    <v>       0.86666667       0.73333333       0.17304109 </v>
    <v>       0.06666667       0.93333333       0.17304109 </v>
    <v>       0.26666667       0.93333333       0.17304109 </v>
    <v>       0.46666667       0.93333333       0.17304109 </v>
    <v>       0.66666667       0.93333333       0.17304109 </v>
    <v>       0.86666667       0.93333333       0.17304109 </v>
    <v>       0.13333333       0.06666667       0.40532935 </v>
    <v>       0.33333333       0.06666667       0.40532935 </v>
    <v>       0.53333333       0.06666667       0.40532935 </v>
    <v>       0.73333333       0.06666667       0.40532935 </v>
    <v>       0.93333333       0.06666667       0.40532935 </v>
    <v>       0.13333333       0.26666667       0.40532935 </v>
    <v>       0.33333333       0.26666667       0.40532935 </v>
    <v>       0.53333333       0.26666667       0.40532935 </v>
    <v>       0.73333333       0.26666667       0.40532935 </v>
    <v>       0.93333333       0.26666667       0.40532935 </v>
    <v>       0.13333333       0.46666667       0.40532935 </v>
    <v>       0.33333333       0.46666667       0.40532935 </v>
    <v>       0.53333333       0.46666667       0.40532935 </v>
    <v>       0.73333333       0.46666667       0.40532935 </v>
    <v>       0.93333333       0.46666667       0.40532935 </v>
    <v>       0.13333333       0.66666667       0.40532935 </v>
    <v>       0.33333333       0.66666667       0.40532935 </v>
    <v>       0.53333333       0.66666667       0.40532935 </v>
    <v>       0.73333333       0.66666667       0.40532935 </v>
    <v>       0.93333333       0.66666667       0.40532935 </v>
    <v>       0.13333333       0.86666667       0.40532935 </v>
    <v>       0.33333333       0.86666667       0.40532935 </v>
    <v>       0.53333333       0.86666667       0.40532935 </v>
    <v>       0.73333333       0.86666667       0.40532935 </v>
    <v>       0.93333333       0.86666667       0.40532935 </v>
    <v>       0.13333333       0.06666667       0.11318662 </v>
    <v>       0.33333333       0.06666667       0.11318662 </v>
    <v>       0.53333333       0.06666667       0.11318662 </v>
    <v>       0.73333333       0.06666667       0.11318662 </v>
    <v>       0.93333333       0.06666667       0.11318662 </v>
    <v>       0.13333333       0.26666667       0.11318662 </v>
    <v>       0.33333333       0.26666667       0.11318662 </v>
    <v>       0.53333333       0.26666667       0.11318662 </v>
    <v>       0.73333333       0.26666667       0.11318662 </v>
    <v>       0.93333333       0.26666667       0.11318662 </v>
    <v>       0.13333333       0.46666667       0.11318662 </v>
    <v>       0.33333333       0.46666667       0.11318662 </v>
    <v>       0.53333333       0.46666667       0.11318662 </v>
    <v>       0.73333333       0.46666667       0.11318662 </v>
    <v>       0.93333333       0.46666667       0.11318662 </v>
    <v>       0.13333333       0.66666667       0.11318662 </v>
    <v>       0.33333333       0.66666667       0.11318662 </v>
    <v>       0.53333333       0.66666667       0.11318662 </v>
    <v>       0.73333333       0.66666667       0.11318662 </v>
    <v>       0.93333333       0.66666667       0.11318662 </v>
    <v>       0.13333333       0.86666667       0.11318662 </v>
    <v>       0.33333333       0.86666667       0.11318662 </v>
    <v>       0.53333333       0.86666667       0.11318662 </v>
    <v>       0.73333333       0.86666667       0.11318662 </v>
    <v>       0.93333333       0.86666667       0.11318662 </v>
    <v>       0.13333333       0.06666667       0.23301500 </v>
    <v>       0.33333333       0.06666667       0.23301500 </v>
    <v>       0.53333333       0.06666667       0.23301500 </v>
    <v>       0.73333333       0.06666667       0.23301500 </v>
    <v>       0.93333333       0.06666667       0.23301500 </v>
    <v>       0.13333333       0.26666667       0.23301500 </v>
    <v>       0.33333333       0.26666667       0.23301500 </v>
    <v>       0.53333333       0.26666667       0.23301500 </v>
    <v>       0.73333333       0.26666667       0.23301500 </v>
    <v>       0.93333333       0.26666667       0.23301500 </v>
    <v>       0.13333333       0.46666667       0.23301500 </v>
    <v>       0.33333333       0.46666667       0.23301500 </v>
    <v>       0.53333333       0.46666667       0.23301500 </v>
    <v>       0.73333333       0.46666667       0.23301500 </v>
    <v>       0.93333333       0.46666667       0.23301500 </v>
    <v>       0.13333333       0.66666667       0.23301500 </v>
    <v>       0.33333333       0.66666667       0.23301500 </v>
    <v>       0.53333333       0.66666667       0.23301500 </v>
    <v>       0.73333333       0.66666667       0.23301500 </v>
    <v>       0.93333333       0.66666667       0.23301500 </v>
    <v>       0.13333333       0.86666667       0.23301500 </v>
    <v>       0.33333333       0.86666667       0.23301500 </v>
    <v>       0.53333333       0.86666667       0.23301500 </v>
    <v>       0.73333333       0.86666667       0.23301500 </v>
    <v>       0.93333333       0.86666667       0.23301500 </v>
    <v>       0.06666667       0.13333333       0.34535543 </v>
    <v>       0.26666667       0.13333333       0.34535543 </v>
    <v>       0.46666667       0.13333333       0.34535543 </v>
    <v>       0.66666667       0.13333333       0.34535543 </v>
    <v>       0.86666667       0.13333333       0.34535543 </v>
    <v>       0.06666667       0.33333333       0.34535543 </v>
    <v>       0.26666667       0.33333333       0.34535543 </v>
    <v>       0.46666667       0.33333333       0.34535543 </v>
    <v>       0.66666667       0.33333333       0.34535543 </v>
    <v>       0.86666667       0.33333333       0.34535543 </v>
    <v>       0.06666667       0.53333333       0.34535543 </v>
    <v>       0.26666667       0.53333333       0.34535543 </v>
    <v>       0.46666667       0.53333333       0.34535543 </v>
    <v>       0.66666667       0.53333333       0.34535543 </v>
    <v>       0.86666667       0.53333333       0.34535543 </v>
    <v>       0.06666667       0.73333333       0.34535543 </v>
    <v>       0.26666667       0.73333333       0.34535543 </v>
    <v>       0.46666667       0.73333333       0.34535543 </v>
    <v>       0.66666667       0.73333333       0.34535543 </v>
    <v>       0.86666667       0.73333333       0.34535543 </v>
    <v>       0.06666667       0.93333333       0.34535543 </v>
    <v>       0.26666667       0.93333333       0.34535543 </v>
    <v>       0.46666667       0.93333333       0.34535543 </v>
    <v>       0.66666667       0.93333333       0.34535543 </v>
    <v>       0.86666667       0.93333333       0.34535543 </v>
    <v>       0.06666667       0.13333333       0.46518382 </v>
    <v>       0.26666667       0.13333333       0.46518382 </v>
    <v>       0.46666667       0.13333333       0.46518382 </v>
    <v>       0.66666667       0.13333333       0.46518382 </v>
    <v>       0.86666667       0.13333333       0.46518382 </v>
    <v>       0.06666667       0.33333333       0.46518382 </v>
    <v>       0.26666667       0.33333333       0.46518382 </v>
    <v>       0.46666667       0.33333333       0.46518382 </v>
    <v>       0.66666667       0.33333333       0.46518382 </v>
    <v>       0.86666667       0.33333333       0.46518382 </v>
    <v>       0.06666667       0.53333333       0.46518382 </v>
    <v>       0.26666667       0.53333333       0.46518382 </v>
    <v>       0.46666667       0.53333333       0.46518382 </v>
    <v>       0.66666667       0.53333333       0.46518382 </v>
    <v>       0.86666667       0.53333333       0.46518382 </v>
    <v>       0.06666667       0.73333333       0.46518382 </v>
    <v>       0.26666667       0.73333333       0.46518382 </v>
    <v>       0.46666667       0.73333333       0.46518382 </v>
    <v>       0.66666667       0.73333333       0.46518382 </v>
    <v>       0.86666667       0.73333333       0.46518382 </v>
    <v>       0.06666667       0.93333333       0.46518382 </v>
    <v>       0.26666667       0.93333333       0.46518382 </v>
    <v>       0.46666667       0.93333333       0.46518382 </v>
    <v>       0.66666667       0.93333333       0.46518382 </v>
    <v>       0.86666667       0.93333333       0.46518382 </v>
   </varray>
  </structure>
  <varray name="forces" >
   <v>      -0.13957666       0.00026338      -0.24513485 </v>
   <v>       0.00677567      -0.00601903      -0.00464778 </v>
   <v>       0.00080459       0.00010996       0.00126156 </v>
   <v>       0.00084376      -0.00005146       0.00122152 </v>
   <v>       0.00610096       0.00612974      -0.00453110 </v>
   <v>       0.00263149      -0.00799352      -0.00463735 </v>
   <v>       0.00301734       0.00832206      -0.00453512 </v>
   <v>       0.00020405      -0.00050867       0.00098775 </v>
   <v>      -0.00000117       0.00004137       0.00069075 </v>
   <v>       0.00024433       0.00045792       0.00093832 </v>
   <v>      -0.00004976      -0.00045250       0.00121560 </v>
   <v>       0.00106058      -0.00003639       0.00094832 </v>
   <v>      -0.00003549       0.00038693       0.00125520 </v>
   <v>       0.00005113      -0.00003166       0.00070793 </v>
   <v>      -0.00004046      -0.00002419       0.00068299 </v>
   <v>      -0.00007199      -0.00057016       0.00122711 </v>
   <v>      -0.00002093      -0.00000581       0.00065847 </v>
   <v>       0.00003161      -0.00001314       0.00070165 </v>
   <v>      -0.00001328       0.00059207       0.00122672 </v>
   <v>       0.00106126       0.00003095       0.00094604 </v>
   <v>       0.00289077       0.00372918      -0.00469131 </v>
   <v>       0.00019757       0.00050290       0.00096757 </v>
   <v>      -0.00000102       0.00002964       0.00068934 </v>
   <v>       0.00025136      -0.00046263       0.00093148 </v>
   <v>       0.00276024      -0.00424899      -0.00447243 </v>
   <v>       0.00023246      -0.00011316      -0.00059052 </v>
   <v>      -0.00002726       0.00004245      -0.00071474 </v>
   <v>       0.00000030      -0.00002768      -0.00066428 </v>
   <v>       0.00004996       0.00005372      -0.00066484 </v>
   <v>      -0.00023750      -0.00014540      -0.00087291 </v>
   <v>       0.00002548       0.00026783      -0.00071765 </v>
   <v>       0.00004626       0.00007230      -0.00055123 </v>
   <v>      -0.00000166       0.00000075      -0.00067220 </v>
   <v>       0.00001225       0.00001103      -0.00067158 </v>
   <v>      -0.00000936      -0.00002644      -0.00058611 </v>
   <v>       0.00000357      -0.00004174      -0.00071117 </v>
   <v>       0.00004747      -0.00006780      -0.00068103 </v>
   <v>       0.00000691      -0.00000565      -0.00067962 </v>
   <v>       0.00000272       0.00000850      -0.00068159 </v>
   <v>      -0.00000595      -0.00000086      -0.00068847 </v>
   <v>       0.00004439       0.00002257      -0.00064289 </v>
   <v>      -0.00001345      -0.00000332      -0.00063193 </v>
   <v>      -0.00001540       0.00000602      -0.00067117 </v>
   <v>       0.00001229       0.00000022      -0.00066556 </v>
   <v>       0.00000658      -0.00000517      -0.00067499 </v>
   <v>      -0.00002995       0.00001744      -0.00072568 </v>
   <v>      -0.00001422      -0.00000269      -0.00064531 </v>
   <v>      -0.00001343      -0.00000302      -0.00064088 </v>
   <v>       0.00009904       0.00000042      -0.00064567 </v>
   <v>      -0.00006687      -0.00004131      -0.00057925 </v>
   <v>      -0.00542659       0.00804018       0.02593219 </v>
   <v>      -0.00023434       0.00046534       0.00118371 </v>
   <v>       0.00007519      -0.00001066       0.00043772 </v>
   <v>       0.00094390      -0.00056540       0.00107139 </v>
   <v>       0.05221466       0.02523226       0.05850777 </v>
   <v>       0.00850562      -0.03338955       0.04234559 </v>
   <v>      -0.00128621       0.00059590       0.00212505 </v>
   <v>      -0.00022044      -0.00006265       0.00042259 </v>
   <v>       0.00011623       0.00013011       0.00033727 </v>
   <v>       0.00184803      -0.00240298       0.00277890 </v>
   <v>       0.00065068      -0.00028946       0.00108558 </v>
   <v>      -0.00001896      -0.00069983       0.00117970 </v>
   <v>      -0.00013678      -0.00018517       0.00044804 </v>
   <v>      -0.00002466      -0.00000219       0.00041250 </v>
   <v>      -0.00003254      -0.00014815       0.00031002 </v>
   <v>       0.00001265      -0.00002858       0.00049564 </v>
   <v>      -0.00003235       0.00001245       0.00049685 </v>
   <v>       0.00001084       0.00004469       0.00037865 </v>
   <v>       0.00014848       0.00012077       0.00040495 </v>
   <v>      -0.00008621       0.00014223       0.00035216 </v>
   <v>      -0.00018692       0.00014778       0.00114074 </v>
   <v>      -0.00004638       0.00001702       0.00047818 </v>
   <v>      -0.00005424      -0.00000371       0.00051836 </v>
   <v>       0.00032020       0.00093576       0.00112246 </v>
   <v>      -0.00231640       0.00181646       0.00245423 </v>
   <v>       0.05275175      -0.02563738       0.05951789 </v>
   <v>       0.00090473       0.00046060       0.00145963 </v>
   <v>       0.00005257       0.00004668       0.00077640 </v>
   <v>      -0.00019746      -0.00049955       0.00162762 </v>
   <v>      -0.00493401      -0.00767573       0.02556579 </v>
   <v>       0.00835406       0.03318323       0.04240934 </v>
   <v>       0.00203310       0.00249653       0.00302594 </v>
   <v>       0.00011407      -0.00016437       0.00065839 </v>
   <v>      -0.00022001       0.00004470       0.00078164 </v>
   <v>      -0.00141213      -0.00051062       0.00218703 </v>
   <v>       0.00002251       0.00069100       0.00161594 </v>
   <v>       0.00054198       0.00027046       0.00145365 </v>
   <v>      -0.00003478       0.00016419       0.00063169 </v>
   <v>      -0.00001273      -0.00000257       0.00077112 </v>
   <v>      -0.00011221       0.00017150       0.00079899 </v>
   <v>      -0.00004360      -0.00004819       0.00072001 </v>
   <v>      -0.00001123      -0.00002454       0.00083223 </v>
   <v>       0.00004298       0.00001288       0.00082749 </v>
   <v>      -0.00009841      -0.00014473       0.00069457 </v>
   <v>       0.00015938      -0.00007932       0.00073859 </v>
   <v>       0.00037246      -0.00086518       0.00153959 </v>
   <v>      -0.00006814       0.00004090       0.00086561 </v>
   <v>      -0.00001254       0.00000729       0.00079805 </v>
   <v>      -0.00020397      -0.00005120       0.00154528 </v>
   <v>      -0.00229373      -0.00198037       0.00260631 </v>
   <v>       0.00019457      -0.00000194      -0.00146549 </v>
   <v>       0.00004286       0.00016918      -0.00041029 </v>
   <v>       0.00001540       0.00000560      -0.00074968 </v>
   <v>      -0.00000049       0.00000545      -0.00076118 </v>
   <v>      -0.00000150       0.00009596      -0.00049406 </v>
   <v>      -0.00004953      -0.00004889      -0.00040804 </v>
   <v>       0.00020644      -0.00003711      -0.00050325 </v>
   <v>      -0.00002519       0.00000659      -0.00083753 </v>
   <v>      -0.00000937      -0.00000370      -0.00075293 </v>
   <v>      -0.00004547       0.00001875      -0.00079160 </v>
   <v>      -0.00001954       0.00001916      -0.00075931 </v>
   <v>      -0.00000559       0.00007649      -0.00076820 </v>
   <v>       0.00001063      -0.00000416      -0.00074937 </v>
   <v>      -0.00001146       0.00000838      -0.00075386 </v>
   <v>       0.00000663       0.00001640      -0.00074026 </v>
   <v>       0.00000730      -0.00003291      -0.00075805 </v>
   <v>       0.00000005      -0.00000354      -0.00078177 </v>
   <v>      -0.00001023       0.00000616      -0.00077453 </v>
   <v>       0.00001578      -0.00000058      -0.00075973 </v>
   <v>      -0.00002481      -0.00001826      -0.00081495 </v>
   <v>      -0.00009219      -0.00005908      -0.00036226 </v>
   <v>       0.00006894      -0.00004936      -0.00072655 </v>
   <v>       0.00000333      -0.00001232      -0.00077539 </v>
   <v>      -0.00005752      -0.00003629      -0.00081269 </v>
   <v>       0.00011776      -0.00012838      -0.00054134 </v>
   <v>       0.00000801      -0.00000410      -0.00050017 </v>
   <v>      -0.00000681      -0.00003803      -0.00041366 </v>
   <v>      -0.00001126      -0.00002147      -0.00043441 </v>
   <v>       0.00000944      -0.00002293      -0.00043866 </v>
   <v>       0.00000834      -0.00001714      -0.00041434 </v>
   <v>       0.00001891       0.00000801      -0.00042201 </v>
   <v>      -0.00003275       0.00001533      -0.00040995 </v>
   <v>      -0.00003002      -0.00001022      -0.00042846 </v>
   <v>      -0.00000165      -0.00000182      -0.00043710 </v>
   <v>       0.00001704      -0.00000298      -0.00043514 </v>
   <v>       0.00001890       0.00000564      -0.00043510 </v>
   <v>      -0.00000866      -0.00000089      -0.00041810 </v>
   <v>      -0.00002129       0.00000717      -0.00042967 </v>
   <v>      -0.00001044       0.00001184      -0.00043454 </v>
   <v>       0.00000486       0.00001054      -0.00043097 </v>
   <v>       0.00000854       0.00001494      -0.00043653 </v>
   <v>      -0.00000025      -0.00000323      -0.00043479 </v>
   <v>       0.00000125      -0.00000471      -0.00043482 </v>
   <v>      -0.00001330       0.00001533      -0.00043524 </v>
   <v>      -0.00000016       0.00002259      -0.00042920 </v>
   <v>       0.00001933       0.00001217      -0.00041628 </v>
   <v>      -0.00001149      -0.00000693      -0.00041757 </v>
   <v>      -0.00000081      -0.00000582      -0.00043546 </v>
   <v>       0.00000245      -0.00000207      -0.00042681 </v>
   <v>      -0.00001372       0.00001137      -0.00040484 </v>
  </varray>
  <varray name="stress" >
   <v>      -0.33952446      -0.01098119       0.00074392 </v>
   <v>      -0.01098105      -0.33958223      -0.00000340 </v>
   <v>       0.00074392      -0.00000352      -0.34216902 </v>
  </varray>
  <energy>
   <i name="e_fr_energy">  -1214.42558410 </i>
   <i name="e_wo_entrp">  -1214.42558410 </i>
   <i name="e_0_energy">      0.00000000 </i>
  </energy>
  <time name="totalsc">********60010.36</time>
  <eigenvalues>
   <array>
    <dimension dim="1">band</dimension>
    <dimension dim="2">kpoint</dimension>
    <dimension dim="3">spin</dimension>
    <field>eigene</field>
    <field>occ</field>
    <set>
     <set comment="spin 1">
      <set comment="kpoint 1">
       <r>  -35.2375    1.0000 </r>
       <r>  -35.2373    1.0000 </r>
       <r>  -35.2371    1.0000 </r>
       <r>  -35.2371    1.0000 </r>
       <r>  -35.2370    1.0000 </r>
       <r>  -35.2368    1.0000 </r>
       <r>  -35.2368    1.0000 </r>
       <r>  -35.2368    1.0000 </r>
       <r>  -35.2368    1.0000 </r>
       <r>  -35.2368    1.0000 </r>
       <r>  -35.2368    1.0000 </r>
       <r>  -35.2368    1.0000 </r>
       <r>  -35.2275    1.0000 </r>
       <r>  -35.2272    1.0000 </r>
       <r>  -35.2270    1.0000 </r>
       <r>  -35.2270    1.0000 </r>
       <r>  -35.2269    1.0000 </r>
       <r>  -35.2267    1.0000 </r>
       <r>  -35.2267    1.0000 </r>
       <r>  -35.2267    1.0000 </r>
       <r>  -35.2267    1.0000 </r>
       <r>  -35.2267    1.0000 </r>
       <r>  -35.2267    1.0000 </r>
       <r>  -35.2266    1.0000 </r>
       <r>  -35.1508    1.0000 </r>
       <r>  -35.1505    1.0000 </r>
       <r>  -35.1504    1.0000 </r>
       <r>  -35.1504    1.0000 </r>
       <r>  -35.1503    1.0000 </r>
       <r>  -35.1500    1.0000 </r>
       <r>  -35.1500    1.0000 </r>
       <r>  -35.1500    1.0000 </r>
       <r>  -35.1500    1.0000 </r>
       <r>  -35.1500    1.0000 </r>
       <r>  -35.1500    1.0000 </r>
       <r>  -35.1500    1.0000 </r>
       <r>  -35.1084    1.0000 </r>
       <r>  -35.1081    1.0000 </r>
       <r>  -35.0768    1.0000 </r>
       <r>  -35.0768    1.0000 </r>
       <r>  -35.0767    1.0000 </r>
       <r>  -35.0766    1.0000 </r>
       <r>  -35.0765    1.0000 </r>
       <r>  -35.0765    1.0000 </r>
       <r>  -35.0763    1.0000 </r>
       <r>  -35.0763    1.0000 </r>
       <r>  -35.0763    1.0000 </r>
       <r>  -35.0763    1.0000 </r>
       <r>  -35.0763    1.0000 </r>
       <r>  -35.0763    1.0000 </r>
       <r>  -35.0350    1.0000 </r>
       <r>  -35.0350    1.0000 </r>
       <r>  -35.0349    1.0000 </r>
       <r>  -35.0348    1.0000 </r>
       <r>  -35.0347    1.0000 </r>
       <r>  -35.0347    1.0000 </r>
       <r>  -35.0345    1.0000 </r>
       <r>  -35.0345    1.0000 </r>
       <r>  -35.0345    1.0000 </r>
       <r>  -35.0345    1.0000 </r>
       <r>  -35.0345    1.0000 </r>
       <r>  -35.0345    1.0000 </r>
       <r>  -35.0302    1.0000 </r>
       <r>  -35.0300    1.0000 </r>
       <r>  -35.0298    1.0000 </r>
       <r>  -35.0298    1.0000 </r>
       <r>  -35.0296    1.0000 </r>
       <r>  -35.0294    1.0000 </r>
       <r>  -35.0294    1.0000 </r>
       <r>  -35.0294    1.0000 </r>
       <r>  -35.0294    1.0000 </r>
       <r>  -35.0294    1.0000 </r>
       <r>  -35.0294    1.0000 </r>
       <r>  -35.0294    1.0000 </r>
       <r>  -35.0251    1.0000 </r>
       <r>  -35.0250    1.0000 </r>
       <r>  -35.0249    1.0000 </r>
       <r>  -35.0249    1.0000 </r>
       <r>  -35.0247    1.0000 </r>
       <r>  -35.0247    1.0000 </r>
       <r>  -35.0245    1.0000 </r>
       <r>  -35.0245    1.0000 </r>
       <r>  -35.0245    1.0000 </r>
       <r>  -35.0245    1.0000 </r>
       <r>  -35.0245    1.0000 </r>
       <r>  -35.0245    1.0000 </r>
       <r>  -35.0091    1.0000 </r>
       <r>  -35.0090    1.0000 </r>
       <r>  -35.0089    1.0000 </r>
       <r>  -35.0088    1.0000 </r>
       <r>  -35.0088    1.0000 </r>
       <r>  -35.0086    1.0000 </r>
       <r>  -35.0085    1.0000 </r>
       <r>  -35.0085    1.0000 </r>
       <r>  -35.0085    1.0000 </r>
       <r>  -35.0085    1.0000 </r>
       <r>  -35.0085    1.0000 </r>
       <r>  -35.0085    1.0000 </r>
       <r>  -34.9887    1.0000 </r>
       <r>  -34.9884    1.0000 </r>
       <r>  -34.9882    1.0000 </r>
       <r>  -34.9882    1.0000 </r>
       <r>  -34.9880    1.0000 </r>
       <r>  -34.9878    1.0000 </r>
       <r>  -34.9878    1.0000 </r>
       <r>  -34.9878    1.0000 </r>
       <r>  -34.9878    1.0000 </r>
       <r>  -34.9878    1.0000 </r>
       <r>  -34.9878    1.0000 </r>
       <r>  -34.9877    1.0000 </r>
       <r>  -34.9539    1.0000 </r>
       <r>  -34.9537    1.0000 </r>
       <r>  -34.9535    1.0000 </r>
       <r>  -34.9535    1.0000 </r>
       <r>  -34.9533    1.0000 </r>
       <r>  -34.9531    1.0000 </r>
       <r>  -34.9531    1.0000 </r>
       <r>  -34.9531    1.0000 </r>
       <r>  -34.9531    1.0000 </r>
       <r>  -34.9531    1.0000 </r>
       <r>  -34.9531    1.0000 </r>
       <r>  -34.9531    1.0000 </r>
       <r>  -34.9232    1.0000 </r>
       <r>  -34.9229    1.0000 </r>
       <r>  -34.9229    1.0000 </r>
       <r>  -34.9229    1.0000 </r>
       <r>  -34.9228    1.0000 </r>
       <r>  -34.9225    1.0000 </r>
       <r>  -34.9225    1.0000 </r>
       <r>  -34.9225    1.0000 </r>
       <r>  -34.9225    1.0000 </r>
       <r>  -34.9225    1.0000 </r>
       <r>  -34.9225    1.0000 </r>
       <r>  -34.9225    1.0000 </r>
       <r>  -34.8653    1.0000 </r>
       <r>  -34.8652    1.0000 </r>
       <r>  -34.8650    1.0000 </r>
       <r>  -34.8650    1.0000 </r>
       <r>  -34.8648    1.0000 </r>
       <r>  -34.8647    1.0000 </r>
       <r>  -34.8647    1.0000 </r>
       <r>  -34.8647    1.0000 </r>
       <r>  -34.8647    1.0000 </r>
       <r>  -34.8647    1.0000 </r>
       <r>  -34.8647    1.0000 </r>
       <r>  -34.8646    1.0000 </r>
       <r>  -34.8290    1.0000 </r>
       <r>  -34.8289    1.0000 </r>
       <r>  -34.8286    1.0000 </r>
       <r>  -34.8286    1.0000 </r>
       <r>  -14.6096    1.0000 </r>
       <r>  -14.4292    1.0000 </r>
       <r>  -14.0006    1.0000 </r>
       <r>  -14.0001    1.0000 </r>
       <r>  -14.0001    1.0000 </r>
       <r>  -14.0000    1.0000 </r>
       <r>  -14.0000    1.0000 </r>
       <r>  -13.9998    1.0000 </r>
       <r>  -13.8263    1.0000 </r>
       <r>  -13.8261    1.0000 </r>
       <r>  -13.8260    1.0000 </r>
       <r>  -13.8260    1.0000 </r>
       <r>  -13.8259    1.0000 </r>
       <r>  -13.8256    1.0000 </r>
       <r>  -13.2630    1.0000 </r>
       <r>  -13.0477    1.0000 </r>
       <r>  -13.0472    1.0000 </r>
       <r>  -13.0470    1.0000 </r>
       <r>  -13.0470    1.0000 </r>
       <r>  -13.0469    1.0000 </r>
       <r>  -13.0468    1.0000 </r>
       <r>  -12.9910    1.0000 </r>
       <r>  -12.9908    1.0000 </r>
       <r>  -12.9908    1.0000 </r>
       <r>  -12.9908    1.0000 </r>
       <r>  -12.9907    1.0000 </r>
       <r>  -12.9903    1.0000 </r>
       <r>  -12.9807    1.0000 </r>
       <r>  -12.9047    1.0000 </r>
       <r>  -12.9044    1.0000 </r>
       <r>  -12.9044    1.0000 </r>
       <r>  -12.9043    1.0000 </r>
       <r>  -12.9042    1.0000 </r>
       <r>  -12.9038    1.0000 </r>
       <r>  -12.7616    1.0000 </r>
       <r>  -12.7612    1.0000 </r>
       <r>  -12.7608    1.0000 </r>
       <r>  -12.7608    1.0000 </r>
       <r>  -12.7608    1.0000 </r>
       <r>  -12.7607    1.0000 </r>
       <r>  -12.7582    1.0000 </r>
       <r>  -12.7579    1.0000 </r>
       <r>  -12.7579    1.0000 </r>
       <r>  -12.7579    1.0000 </r>
       <r>  -12.7578    1.0000 </r>
       <r>  -12.7576    1.0000 </r>
       <r>  -12.6424    1.0000 </r>
       <r>  -12.6421    1.0000 </r>
       <r>  -12.6421    1.0000 </r>
       <r>  -12.6421    1.0000 </r>
       <r>  -12.6419    1.0000 </r>
       <r>  -12.6415    1.0000 </r>
       <r>  -12.5599    1.0000 </r>
       <r>  -12.5596    1.0000 </r>
       <r>  -12.5596    1.0000 </r>
       <r>  -12.5596    1.0000 </r>
       <r>  -12.5594    1.0000 </r>
       <r>  -12.5588    1.0000 </r>
       <r>  -12.4484    1.0000 </r>
       <r>  -12.4481    1.0000 </r>
       <r>  -12.4481    1.0000 </r>
       <r>  -12.4481    1.0000 </r>
       <r>  -12.4479    1.0000 </r>
       <r>  -12.4471    1.0000 </r>
       <r>  -12.4168    1.0000 </r>
       <r>  -12.4161    1.0000 </r>
       <r>  -12.4160    1.0000 </r>
       <r>  -12.4160    1.0000 </r>
       <r>  -12.4160    1.0000 </r>
       <r>  -12.4155    1.0000 </r>
       <r>  -12.3495    1.0000 </r>
       <r>  -12.3487    1.0000 </r>
       <r>  -12.3485    1.0000 </r>
       <r>  -12.3485    1.0000 </r>
       <r>  -12.3485    1.0000 </r>
       <r>  -12.3481    1.0000 </r>
       <r>  -12.2938    1.0000 </r>
       <r>  -12.2933    1.0000 </r>
       <r>  -12.2927    1.0000 </r>
       <r>  -12.2926    1.0000 </r>
       <r>  -12.2926    1.0000 </r>
       <r>  -12.2926    1.0000 </r>
       <r>  -12.2271    1.0000 </r>
       <r>  -12.2270    1.0000 </r>
       <r>  -12.2270    1.0000 </r>
       <r>  -12.2270    1.0000 </r>
       <r>  -12.2268    1.0000 </r>
       <r>  -12.2264    1.0000 </r>
       <r>  -12.2022    1.0000 </r>
       <r>  -12.2022    1.0000 </r>
       <r>  -12.2022    1.0000 </r>
       <r>  -12.2021    1.0000 </r>
       <r>  -12.2019    1.0000 </r>
       <r>  -12.2006    1.0000 </r>
       <r>  -12.1783    1.0000 </r>
       <r>  -12.1772    1.0000 </r>
       <r>  -12.1772    1.0000 </r>
       <r>  -12.1771    1.0000 </r>
       <r>  -12.1771    1.0000 </r>
       <r>  -12.1767    1.0000 </r>
       <r>   -6.4329    1.0000 </r>
       <r>   -6.1419    1.0000 </r>
       <r>   -6.1416    1.0000 </r>
       <r>   -6.1416    1.0000 </r>
       <r>   -6.1415    1.0000 </r>
       <r>   -6.1414    1.0000 </r>
       <r>   -6.1413    1.0000 </r>
       <r>   -5.9353    1.0000 </r>
       <r>   -5.9351    1.0000 </r>
       <r>   -5.9350    1.0000 </r>
       <r>   -5.9350    1.0000 </r>
       <r>   -5.9350    1.0000 </r>
       <r>   -5.9347    1.0000 </r>
       <r>   -5.8608    1.0000 </r>
       <r>   -5.8599    1.0000 </r>
       <r>   -5.8598    1.0000 </r>
       <r>   -5.8598    1.0000 </r>
       <r>   -5.8598    1.0000 </r>
       <r>   -5.8595    1.0000 </r>
       <r>   -5.8122    1.0000 </r>
       <r>   -5.8119    1.0000 </r>
       <r>   -5.8113    1.0000 </r>
       <r>   -5.8112    1.0000 </r>
       <r>   -5.8112    1.0000 </r>
       <r>   -5.8112    1.0000 </r>
       <r>   -5.8106    1.0000 </r>
       <r>   -5.6752    1.0000 </r>
       <r>   -5.6752    1.0000 </r>
       <r>   -5.6751    1.0000 </r>
       <r>   -5.6751    1.0000 </r>
       <r>   -5.6748    1.0000 </r>
       <r>   -5.6741    1.0000 </r>
       <r>   -5.6554    1.0000 </r>
       <r>   -5.6554    1.0000 </r>
       <r>   -5.6553    1.0000 </r>
       <r>   -5.6552    1.0000 </r>
       <r>   -5.6552    1.0000 </r>
       <r>   -5.6544    1.0000 </r>
       <r>   -5.6535    1.0000 </r>
       <r>   -5.6530    1.0000 </r>
       <r>   -5.6529    1.0000 </r>
       <r>   -5.6528    1.0000 </r>
       <r>   -5.6527    1.0000 </r>
       <r>   -5.6524    1.0000 </r>
       <r>   -5.6226    1.0000 </r>
       <r>   -5.6224    1.0000 </r>
       <r>   -5.6219    1.0000 </r>
       <r>   -5.6218    1.0000 </r>
       <r>   -5.6218    1.0000 </r>
       <r>   -5.6218    1.0000 </r>
       <r>   -5.4063    1.0000 </r>
       <r>   -5.4061    1.0000 </r>
       <r>   -5.4060    1.0000 </r>
       <r>   -5.4059    1.0000 </r>
       <r>   -5.4058    1.0000 </r>
       <r>   -5.4055    1.0000 </r>
       <r>   -5.2870    1.0000 </r>
       <r>   -5.2867    1.0000 </r>
       <r>   -5.2866    1.0000 </r>
       <r>   -5.2866    1.0000 </r>
       <r>   -5.2866    1.0000 </r>
       <r>   -5.2857    1.0000 </r>
       <r>   -5.1818    1.0000 </r>
       <r>   -5.1817    1.0000 </r>
       <r>   -5.1816    1.0000 </r>
       <r>   -5.1815    1.0000 </r>
       <r>   -5.1813    1.0000 </r>
       <r>   -5.1810    1.0000 </r>
       <r>   -4.9668    1.0000 </r>
       <r>   -4.9665    1.0000 </r>
       <r>   -4.9663    1.0000 </r>
       <r>   -4.9662    1.0000 </r>
       <r>   -4.9661    1.0000 </r>
       <r>   -4.9659    1.0000 </r>
       <r>   -4.6885    1.0000 </r>
       <r>   -4.6883    1.0000 </r>
       <r>   -4.6880    1.0000 </r>
       <r>   -4.6879    1.0000 </r>
       <r>   -4.6874    1.0000 </r>
       <r>   -4.6872    1.0000 </r>
       <r>   -4.5929    1.0000 </r>
       <r>   -4.5927    1.0000 </r>
       <r>   -4.5922    1.0000 </r>
       <r>   -4.5922    1.0000 </r>
       <r>   -4.5918    1.0000 </r>
       <r>   -4.5917    1.0000 </r>
       <r>   -4.4859    1.0000 </r>
       <r>   -4.4855    1.0000 </r>
       <r>   -4.4853    1.0000 </r>
       <r>   -4.4853    1.0000 </r>
       <r>   -4.4853    1.0000 </r>
       <r>   -4.4851    1.0000 </r>
       <r>   -4.4831    1.0000 </r>
       <r>   -4.4829    1.0000 </r>
       <r>   -4.4827    1.0000 </r>
       <r>   -4.4826    1.0000 </r>
       <r>   -4.4826    1.0000 </r>
       <r>   -4.4823    1.0000 </r>
       <r>   -4.2156    1.0000 </r>
       <r>   -4.2155    1.0000 </r>
       <r>   -4.2153    1.0000 </r>
       <r>   -4.2151    1.0000 </r>
       <r>   -4.2148    1.0000 </r>
       <r>   -4.2147    1.0000 </r>
       <r>   -4.1698    1.0000 </r>
       <r>   -4.1697    1.0000 </r>
       <r>   -4.1696    1.0000 </r>
       <r>   -4.1696    1.0000 </r>
       <r>   -4.1694    1.0000 </r>
       <r>   -4.1692    1.0000 </r>
       <r>   -4.1143    1.0000 </r>
       <r>   -4.1141    1.0000 </r>
       <r>   -4.1141    1.0000 </r>
       <r>   -4.1140    1.0000 </r>
       <r>   -4.1138    1.0000 </r>
       <r>   -4.1135    1.0000 </r>
       <r>   -3.9839    1.0000 </r>
       <r>   -3.9836    1.0000 </r>
       <r>   -3.9833    1.0000 </r>
       <r>   -3.9832    1.0000 </r>
       <r>   -3.9830    1.0000 </r>
       <r>   -3.9827    1.0000 </r>
       <r>   -3.9754    1.0000 </r>
       <r>   -3.9752    1.0000 </r>
       <r>   -3.9752    1.0000 </r>
       <r>   -3.9751    1.0000 </r>
       <r>   -3.9743    1.0000 </r>
       <r>   -3.9742    1.0000 </r>
       <r>   -3.8781    1.0000 </r>
       <r>   -3.8779    1.0000 </r>
       <r>   -3.8776    1.0000 </r>
       <r>   -3.8774    1.0000 </r>
       <r>   -3.8773    1.0000 </r>
       <r>   -3.8770    1.0000 </r>
       <r>   -3.8007    1.0000 </r>
       <r>   -3.7999    1.0000 </r>
       <r>   -3.7997    1.0000 </r>
       <r>   -3.7996    1.0000 </r>
       <r>   -3.7995    1.0000 </r>
       <r>   -3.7990    1.0000 </r>
       <r>   -3.7573    1.0000 </r>
       <r>   -3.7560    1.0000 </r>
       <r>   -3.7556    1.0000 </r>
       <r>   -3.7555    1.0000 </r>
       <r>   -3.7554    1.0000 </r>
       <r>   -3.7546    1.0000 </r>
       <r>   -3.5939    1.0000 </r>
       <r>   -3.5934    1.0000 </r>
       <r>   -3.5934    1.0000 </r>
       <r>   -3.5933    1.0000 </r>
       <r>   -3.5933    1.0000 </r>
       <r>   -3.5930    1.0000 </r>
       <r>   -3.4213    1.0000 </r>
       <r>   -3.4209    1.0000 </r>
       <r>   -3.4208    1.0000 </r>
       <r>   -3.4206    1.0000 </r>
       <r>   -3.4205    1.0000 </r>
       <r>   -3.4197    1.0000 </r>
       <r>   -3.3930    1.0000 </r>
       <r>   -3.3921    1.0000 </r>
       <r>   -3.3921    1.0000 </r>
       <r>   -3.3920    1.0000 </r>
       <r>   -3.3920    1.0000 </r>
       <r>   -3.3914    1.0000 </r>
       <r>   -3.3891    1.0000 </r>
       <r>   -3.3891    1.0000 </r>
       <r>   -3.3890    1.0000 </r>
       <r>   -3.3889    1.0000 </r>
       <r>   -3.3887    1.0000 </r>
       <r>   -3.3887    1.0000 </r>
       <r>   -3.3434    1.0000 </r>
       <r>   -3.3428    1.0000 </r>
       <r>   -3.3428    1.0000 </r>
       <r>   -3.3428    1.0000 </r>
       <r>   -3.3427    1.0000 </r>
       <r>   -3.3422    1.0000 </r>
       <r>   -3.3343    1.0000 </r>
       <r>   -3.3338    1.0000 </r>
       <r>   -3.3336    1.0000 </r>
       <r>   -3.3335    1.0000 </r>
       <r>   -3.3332    1.0000 </r>
       <r>   -3.3319    1.0000 </r>
       <r>   -3.0587    1.0000 </r>
       <r>   -3.0586    1.0000 </r>
       <r>   -3.0585    1.0000 </r>
       <r>   -3.0584    1.0000 </r>
       <r>   -3.0582    1.0000 </r>
       <r>   -3.0579    1.0000 </r>
       <r>   -2.9200    1.0000 </r>
       <r>   -2.9198    1.0000 </r>
       <r>   -2.9197    1.0000 </r>
       <r>   -2.9196    1.0000 </r>
       <r>   -2.9195    1.0000 </r>
       <r>   -2.9195    1.0000 </r>
       <r>   -2.9060    1.0000 </r>
       <r>   -2.9058    1.0000 </r>
       <r>   -2.8984    1.0000 </r>
       <r>   -2.8981    1.0000 </r>
       <r>   -2.7566    1.0000 </r>
       <r>   -2.5636    1.0000 </r>
       <r>   -2.5635    1.0000 </r>
       <r>   -2.5631    1.0000 </r>
       <r>   -2.5630    1.0000 </r>
       <r>   -2.5627    1.0000 </r>
       <r>   -2.5627    1.0000 </r>
       <r>   -2.5613    1.0000 </r>
       <r>   -2.5613    1.0000 </r>
       <r>   -2.5612    1.0000 </r>
       <r>   -2.5611    1.0000 </r>
       <r>   -2.5609    1.0000 </r>
       <r>   -2.5607    1.0000 </r>
       <r>   -2.5200    1.0000 </r>
       <r>   -2.5188    1.0000 </r>
       <r>   -2.5186    1.0000 </r>
       <r>   -2.5185    1.0000 </r>
       <r>   -2.5184    1.0000 </r>
       <r>   -2.5178    1.0000 </r>
       <r>   -2.4786    1.0000 </r>
       <r>   -2.4779    1.0000 </r>
       <r>   -2.4778    1.0000 </r>
       <r>   -2.4778    1.0000 </r>
       <r>   -2.4776    1.0000 </r>
       <r>   -2.4764    1.0000 </r>
       <r>   -2.3811    1.0000 </r>
       <r>   -2.3804    1.0000 </r>
       <r>   -2.3803    1.0000 </r>
       <r>   -2.3803    1.0000 </r>
       <r>   -2.3802    1.0000 </r>
       <r>   -2.3795    1.0000 </r>
       <r>   -2.2939    1.0000 </r>
[...]
       <r>   -23.0188     0.0000   300.0000 </r>
       <r>   -22.8784     0.0000   300.0000 </r>
       <r>   -22.7381     0.0000   300.0000 </r>
       <r>   -22.5978     0.0000   300.0000 </r>
       <r>   -22.4574     0.0000   300.0000 </r>
       <r>   -22.3171     0.0000   300.0000 </r>
       <r>   -22.1768     0.0000   300.0000 </r>
       <r>   -22.0364     0.0000   300.0000 </r>
       <r>   -21.8961     0.0000   300.0000 </r>
       <r>   -21.7558     0.0000   300.0000 </r>
       <r>   -21.6154     0.0000   300.0000 </r>
       <r>   -21.4751     0.0000   300.0000 </r>
       <r>   -21.3348     0.0000   300.0000 </r>
       <r>   -21.1944     0.0000   300.0000 </r>
       <r>   -21.0541     0.0000   300.0000 </r>
       <r>   -20.9138     0.0000   300.0000 </r>
       <r>   -20.7734     0.0000   300.0000 </r>
       <r>   -20.6331     0.0000   300.0000 </r>
       <r>   -20.4928     0.0000   300.0000 </r>
       <r>   -20.3524     0.0000   300.0000 </r>
       <r>   -20.2121     0.0000   300.0000 </r>
       <r>   -20.0718     0.0000   300.0000 </r>
       <r>   -19.9314     0.0000   300.0000 </r>
       <r>   -19.7911     0.0000   300.0000 </r>
       <r>   -19.6508     0.0000   300.0000 </r>
       <r>   -19.5104     0.0000   300.0000 </r>
       <r>   -19.3701     0.0000   300.0000 </r>
       <r>   -19.2298     0.0000   300.0000 </r>
       <r>   -19.0894     0.0000   300.0000 </r>
       <r>   -18.9491     0.0000   300.0000 </r>
       <r>   -18.8088     0.0000   300.0000 </r>
       <r>   -18.6684     0.0000   300.0000 </r>
       <r>   -18.5281     0.0000   300.0000 </r>
       <r>   -18.3878     0.0000   300.0000 </r>
       <r>   -18.2474     0.0000   300.0000 </r>
       <r>   -18.1071     0.0000   300.0000 </r>
       <r>   -17.9668     0.0000   300.0000 </r>
       <r>   -17.8264     0.0000   300.0000 </r>
       <r>   -17.6861     0.0000   300.0000 </r>
       <r>   -17.5458     0.0000   300.0000 </r>
       <r>   -17.4054     0.0000   300.0000 </r>
       <r>   -17.2651     0.0000   300.0000 </r>
       <r>   -17.1248     0.0000   300.0000 </r>
       <r>   -16.9845     0.0000   300.0000 </r>
       <r>   -16.8441     0.0000   300.0000 </r>
       <r>   -16.7038     0.0000   300.0000 </r>
       <r>   -16.5635     0.0000   300.0000 </r>
       <r>   -16.4231     0.0000   300.0000 </r>
       <r>   -16.2828     0.0000   300.0000 </r>
       <r>   -16.1425     0.0000   300.0000 </r>
       <r>   -16.0021     0.0000   300.0000 </r>
       <r>   -15.8618     0.0000   300.0000 </r>
       <r>   -15.7215     0.0000   300.0000 </r>
       <r>   -15.5811     0.0000   300.0000 </r>
       <r>   -15.4408     0.0000   300.0000 </r>
       <r>   -15.3005     0.0000   300.0000 </r>
       <r>   -15.1601     0.0000   300.0000 </r>
       <r>   -15.0198     0.0000   300.0000 </r>
       <r>   -14.8795     0.0000   300.0000 </r>
       <r>   -14.7391     0.0000   300.0000 </r>
       <r>   -14.5988     3.3379   300.4684 </r>
       <r>   -14.4585     1.7603   300.7470 </r>
       <r>   -14.3181     0.0000   304.0000 </r>
       <r>   -14.1778     0.0000   307.0000 </r>
       <r>   -14.0375     0.0000   310.0000 </r>
       <r>   -13.8971    21.3778   316.0000 </r>
       <r>   -13.7568    21.3778   319.0000 </r>
       <r>   -13.6165     0.6547   319.0919 </r>
       <r>   -13.4761     0.0000   325.0000 </r>
       <r>   -13.3358    21.3778   334.0000 </r>
       <r>   -13.1955    30.5244   338.2836 </r>
       <r>   -13.0551    12.6752   342.2787 </r>
       <r>   -12.9148    86.7494   358.6738 </r>
       <r>   -12.7745   107.6967   377.1134 </r>
       <r>   -12.6341    40.0119   388.6150 </r>
       <r>   -12.4938   164.8035   418.1273 </r>
       <r>   -12.3535   165.6201   446.7419 </r>
       <r>   -12.2131   146.7679   484.0963 </r>
       <r>   -12.0728    42.7556   500.0000 </r>
       <r>   -11.9325     0.0000   500.0000 </r>
       <r>   -11.7921     0.0000   500.0000 </r>
       <r>   -11.6518     0.0000   500.0000 </r>
       <r>   -11.5115     0.0000   500.0000 </r>
       <r>   -11.3711     0.0000   500.0000 </r>
       <r>   -11.2308     0.0000   500.0000 </r>
       <r>   -11.0905     0.0000   500.0000 </r>
       <r>   -10.9501     0.0000   500.0000 </r>
       <r>   -10.8098     0.0000   500.0000 </r>
       <r>   -10.6695     0.0000   500.0000 </r>
       <r>   -10.5292     0.0000   500.0000 </r>
       <r>   -10.3888     0.0000   500.0000 </r>
       <r>   -10.2485     0.0000   500.0000 </r>
       <r>   -10.1082     0.0000   500.0000 </r>
       <r>    -9.9678     0.0000   500.0000 </r>
       <r>    -9.8275     0.0000   500.0000 </r>
       <r>    -9.6872     0.0000   500.0000 </r>
       <r>    -9.5468     0.0000   500.0000 </r>
       <r>    -9.4065     0.0000   500.0000 </r>
       <r>    -9.2662     0.0000   500.0000 </r>
       <r>    -9.1258     0.0000   500.0000 </r>
       <r>    -8.9855     0.0000   500.0000 </r>
       <r>    -8.8452     0.0000   500.0000 </r>
       <r>    -8.7048     0.0000   500.0000 </r>
       <r>    -8.5645     0.0000   500.0000 </r>
       <r>    -8.4242     0.0000   500.0000 </r>
       <r>    -8.2838     0.0000   500.0000 </r>
       <r>    -8.1435     0.0000   500.0000 </r>
       <r>    -8.0032     0.0000   500.0000 </r>
       <r>    -7.8628     0.0000   500.0000 </r>
       <r>    -7.7225     0.0000   500.0000 </r>
       <r>    -7.5822     0.0000   500.0000 </r>
       <r>    -7.4418     0.0000   500.0000 </r>
       <r>    -7.3015     0.0000   500.0000 </r>
       <r>    -7.1612     0.0000   500.0000 </r>
       <r>    -7.0208     0.0000   500.0000 </r>
       <r>    -6.8805     0.0000   500.0000 </r>
       <r>    -6.7402     0.0000   500.0000 </r>
       <r>    -6.5998     0.0000   500.0000 </r>
       <r>    -6.4595     0.0003   500.0000 </r>
       <r>    -6.3192    10.6889   502.0000 </r>
       <r>    -6.1788    26.8242   505.7643 </r>
       <r>    -6.0385     0.0000   515.5000 </r>
       <r>    -5.8982    87.0966   527.7225 </r>
       <r>    -5.7578    89.2933   552.0308 </r>
       <r>    -5.6175   165.0243   578.1583 </r>
       <r>    -5.4772     0.0000   588.0000 </r>
       <r>    -5.3368   202.1598   619.3696 </r>
       <r>    -5.1965    74.9354   639.0159 </r>
       <r>    -5.0562     0.0000   642.0000 </r>
       <r>    -4.9158    33.4837   646.6989 </r>
       <r>    -4.7755     0.2518   651.0353 </r>
       <r>    -4.6352    40.2157   662.6436 </r>
       <r>    -4.4948    45.6205   673.9020 </r>
       <r>    -4.3545     4.5420   680.1374 </r>
       <r>    -4.2142   124.8209   712.0164 </r>
       <r>    -4.0739    64.1333   732.0000 </r>
       <r>    -3.9335   169.2308   761.7486 </r>
       <r>    -3.7932    17.5877   767.4681 </r>
       <r>    -3.6529    21.3778   792.0000 </r>
       <r>    -3.5125   114.1906   811.0247 </r>
       <r>    -3.3722   135.8192   838.0599 </r>
       <r>    -3.2319    73.2116   859.2740 </r>
       <r>    -3.0915    64.4401   873.0430 </r>
       <r>    -2.9512    42.7557   891.0000 </r>
       <r>    -2.8109    35.6296   902.0000 </r>
       <r>    -2.6705    42.7556   908.5000 </r>
       <r>    -2.5302    72.7016   918.7024 </r>
       <r>    -2.3899    87.4112   938.7666 </r>
       <r>    -2.2495   114.0480   957.5046 </r>
       <r>    -2.1092    95.8801   974.4551 </r>
       <r>    -1.9689   152.9901  1010.9695 </r>
       <r>    -1.8285    97.3730  1033.1646 </r>
       <r>    -1.6882    78.1890  1048.4725 </r>
       <r>    -1.5479    38.0982  1059.8464 </r>
       <r>    -1.4075    64.1333  1073.0000 </r>
       <r>    -1.2672    43.7701  1082.1424 </r>
       <r>    -1.1269    59.1187  1102.2963 </r>
       <r>    -0.9865   193.5575  1140.6624 </r>
       <r>    -0.8462    13.7640  1145.4315 </r>
       <r>    -0.7059    80.4080  1171.2839 </r>
       <r>    -0.5655    46.2270  1184.4872 </r>
       <r>    -0.4252    62.9086  1193.3281 </r>
       <r>    -0.2849    21.3778  1196.5000 </r>
       <r>    -0.1445     0.0000  1196.5000 </r>
       <r>    -0.0042     0.0006  1196.5001 </r>
       <r>     0.1361     0.0000  1199.5000 </r>
       <r>     0.2765     3.5629  1200.0000 </r>
       <r>     0.4168     0.0000  1200.0000 </r>
       <r>     0.5571     0.0000  1200.0000 </r>
       <r>     0.6975     0.0000  1200.0000 </r>
       <r>     0.8378     0.0000  1200.0000 </r>
       <r>     0.9781     0.0000  1200.0000 </r>
       <r>     1.1185     0.0000  1200.0000 </r>
       <r>     1.2588     0.0000  1200.0000 </r>
       <r>     1.3991     0.0000  1200.0000 </r>
       <r>     1.5395    32.7198  1204.5917 </r>
       <r>     1.6798    20.3718  1211.8588 </r>
       <r>     1.8201     3.2635  1221.4580 </r>
       <r>     1.9605    67.1138  1242.4183 </r>
       <r>     2.1008   129.0727  1269.1131 </r>
       <r>     2.2411   195.5519  1302.4423 </r>
       <r>     2.3814    82.5709  1325.5874 </r>
       <r>     2.5218   209.0657  1368.3387 </r>
       <r>     2.6621    63.5676  1397.9206 </r>
       <r>     2.8024   176.3092  1423.2419 </r>
       <r>     2.9428    24.9401  1436.9999 </r>
       <r>     3.0831     0.0000  1440.0000 </r>
       <r>     3.2234     0.0000  1440.0000 </r>
       <r>     3.3638     0.0000  1440.0000 </r>
       <r>     3.5041     0.0000  1440.0000 </r>
       <r>     3.6444     0.0000  1440.0000 </r>
       <r>     3.7848     0.0000  1440.0000 </r>
       <r>     3.9251     0.0000  1440.0000 </r>
       <r>     4.0654     0.0000  1440.0000 </r>
       <r>     4.2058     0.0000  1440.0000 </r>
       <r>     4.3461     0.0000  1440.0000 </r>
       <r>     4.4864     0.0000  1440.0000 </r>
       <r>     4.6268     0.0000  1440.0000 </r>
       <r>     4.7671     0.0000  1440.0000 </r>
       <r>     4.9074     0.0000  1440.0000 </r>
      </set>
     </set>
    </array>
   </total>
  </dos>
 </calculation>
 <structure name="finalpos" >
  <crystal>
   <varray name="basis" >
    <v>      15.65451448      -0.00000001       0.00000000 </v>
    <v>      -7.82725475      13.55720592       0.00000000 </v>
    <v>       0.00000000       0.00000000      26.00697779 </v>
   </varray>
   <i name="volume">   5519.49928921 </i>
   <varray name="rec_basis" >
    <v>       0.06387934       0.03688074       0.00000000 </v>
    <v>       0.00000000       0.07376151       0.00000000 </v>
    <v>       0.00000000       0.00000000       0.03845122 </v>
   </varray>
  </crystal>
  <varray name="positions" >
   <v>       0.06699610       0.13333333       0.17337052 </v>
   <v>       0.26666667       0.13333333       0.17304109 </v>
   <v>       0.46666667       0.13333333       0.17304109 </v>
   <v>       0.66666667       0.13333333       0.17304109 </v>
   <v>       0.86666667       0.13333333       0.17304109 </v>
   <v>       0.06666667       0.33333333       0.17304109 </v>
   <v>       0.26666667       0.33333333       0.17304109 </v>
   <v>       0.46666667       0.33333333       0.17304109 </v>
   <v>       0.66666667       0.33333333       0.17304109 </v>
   <v>       0.86666667       0.33333333       0.17304109 </v>
   <v>       0.06666667       0.53333333       0.17304109 </v>
   <v>       0.26666667       0.53333333       0.17304109 </v>
   <v>       0.46666667       0.53333333       0.17304109 </v>
   <v>       0.66666667       0.53333333       0.17304109 </v>
   <v>       0.86666667       0.53333333       0.17304109 </v>
   <v>       0.06666667       0.73333333       0.17304109 </v>
   <v>       0.26666667       0.73333333       0.17304109 </v>
   <v>       0.46666667       0.73333333       0.17304109 </v>
   <v>       0.66666667       0.73333333       0.17304109 </v>
   <v>       0.86666667       0.73333333       0.17304109 </v>
   <v>       0.06666667       0.93333333       0.17304109 </v>
   <v>       0.26666667       0.93333333       0.17304109 </v>
   <v>       0.46666667       0.93333333       0.17304109 </v>
   <v>       0.66666667       0.93333333       0.17304109 </v>
   <v>       0.86666667       0.93333333       0.17304109 </v>
   <v>       0.13333333       0.06666667       0.40532935 </v>
   <v>       0.33333333       0.06666667       0.40532935 </v>
   <v>       0.53333333       0.06666667       0.40532935 </v>
   <v>       0.73333333       0.06666667       0.40532935 </v>
   <v>       0.93333333       0.06666667       0.40532935 </v>
   <v>       0.13333333       0.26666667       0.40532935 </v>
   <v>       0.33333333       0.26666667       0.40532935 </v>
   <v>       0.53333333       0.26666667       0.40532935 </v>
   <v>       0.73333333       0.26666667       0.40532935 </v>
   <v>       0.93333333       0.26666667       0.40532935 </v>
   <v>       0.13333333       0.46666667       0.40532935 </v>
   <v>       0.33333333       0.46666667       0.40532935 </v>
   <v>       0.53333333       0.46666667       0.40532935 </v>
   <v>       0.73333333       0.46666667       0.40532935 </v>
   <v>       0.93333333       0.46666667       0.40532935 </v>
   <v>       0.13333333       0.66666667       0.40532935 </v>
   <v>       0.33333333       0.66666667       0.40532935 </v>
   <v>       0.53333333       0.66666667       0.40532935 </v>
   <v>       0.73333333       0.66666667       0.40532935 </v>
   <v>       0.93333333       0.66666667       0.40532935 </v>
   <v>       0.13333333       0.86666667       0.40532935 </v>
   <v>       0.33333333       0.86666667       0.40532935 </v>
   <v>       0.53333333       0.86666667       0.40532935 </v>
   <v>       0.73333333       0.86666667       0.40532935 </v>
   <v>       0.93333333       0.86666667       0.40532935 </v>
   <v>       0.13333333       0.06666667       0.11318662 </v>
   <v>       0.33333333       0.06666667       0.11318662 </v>
   <v>       0.53333333       0.06666667       0.11318662 </v>
   <v>       0.73333333       0.06666667       0.11318662 </v>
   <v>       0.93333333       0.06666667       0.11318662 </v>
   <v>       0.13333333       0.26666667       0.11318662 </v>
   <v>       0.33333333       0.26666667       0.11318662 </v>
   <v>       0.53333333       0.26666667       0.11318662 </v>
   <v>       0.73333333       0.26666667       0.11318662 </v>
   <v>       0.93333333       0.26666667       0.11318662 </v>
   <v>       0.13333333       0.46666667       0.11318662 </v>
   <v>       0.33333333       0.46666667       0.11318662 </v>
   <v>       0.53333333       0.46666667       0.11318662 </v>
   <v>       0.73333333       0.46666667       0.11318662 </v>
   <v>       0.93333333       0.46666667       0.11318662 </v>
   <v>       0.13333333       0.66666667       0.11318662 </v>
   <v>       0.33333333       0.66666667       0.11318662 </v>
   <v>       0.53333333       0.66666667       0.11318662 </v>
   <v>       0.73333333       0.66666667       0.11318662 </v>
   <v>       0.93333333       0.66666667       0.11318662 </v>
   <v>       0.13333333       0.86666667       0.11318662 </v>
   <v>       0.33333333       0.86666667       0.11318662 </v>
   <v>       0.53333333       0.86666667       0.11318662 </v>
   <v>       0.73333333       0.86666667       0.11318662 </v>
   <v>       0.93333333       0.86666667       0.11318662 </v>
   <v>       0.13333333       0.06666667       0.23301500 </v>
   <v>       0.33333333       0.06666667       0.23301500 </v>
   <v>       0.53333333       0.06666667       0.23301500 </v>
   <v>       0.73333333       0.06666667       0.23301500 </v>
   <v>       0.93333333       0.06666667       0.23301500 </v>
   <v>       0.13333333       0.26666667       0.23301500 </v>
   <v>       0.33333333       0.26666667       0.23301500 </v>
   <v>       0.53333333       0.26666667       0.23301500 </v>
   <v>       0.73333333       0.26666667       0.23301500 </v>
   <v>       0.93333333       0.26666667       0.23301500 </v>
   <v>       0.13333333       0.46666667       0.23301500 </v>
   <v>       0.33333333       0.46666667       0.23301500 </v>
   <v>       0.53333333       0.46666667       0.23301500 </v>
   <v>       0.73333333       0.46666667       0.23301500 </v>
   <v>       0.93333333       0.46666667       0.23301500 </v>
   <v>       0.13333333       0.66666667       0.23301500 </v>
   <v>       0.33333333       0.66666667       0.23301500 </v>
   <v>       0.53333333       0.66666667       0.23301500 </v>
   <v>       0.73333333       0.66666667       0.23301500 </v>
   <v>       0.93333333       0.66666667       0.23301500 </v>
   <v>       0.13333333       0.86666667       0.23301500 </v>
   <v>       0.33333333       0.86666667       0.23301500 </v>
   <v>       0.53333333       0.86666667       0.23301500 </v>
   <v>       0.73333333       0.86666667       0.23301500 </v>
   <v>       0.93333333       0.86666667       0.23301500 </v>
   <v>       0.06666667       0.13333333       0.34535543 </v>
   <v>       0.26666667       0.13333333       0.34535543 </v>
   <v>       0.46666667       0.13333333       0.34535543 </v>
   <v>       0.66666667       0.13333333       0.34535543 </v>
   <v>       0.86666667       0.13333333       0.34535543 </v>
   <v>       0.06666667       0.33333333       0.34535543 </v>
   <v>       0.26666667       0.33333333       0.34535543 </v>
   <v>       0.46666667       0.33333333       0.34535543 </v>
   <v>       0.66666667       0.33333333       0.34535543 </v>
   <v>       0.86666667       0.33333333       0.34535543 </v>
   <v>       0.06666667       0.53333333       0.34535543 </v>
   <v>       0.26666667       0.53333333       0.34535543 </v>
   <v>       0.46666667       0.53333333       0.34535543 </v>
   <v>       0.66666667       0.53333333       0.34535543 </v>
   <v>       0.86666667       0.53333333       0.34535543 </v>
   <v>       0.06666667       0.73333333       0.34535543 </v>
   <v>       0.26666667       0.73333333       0.34535543 </v>
   <v>       0.46666667       0.73333333       0.34535543 </v>
   <v>       0.66666667       0.73333333       0.34535543 </v>
   <v>       0.86666667       0.73333333       0.34535543 </v>
   <v>       0.06666667       0.93333333       0.34535543 </v>
   <v>       0.26666667       0.93333333       0.34535543 </v>
   <v>       0.46666667       0.93333333       0.34535543 </v>
   <v>       0.66666667       0.93333333       0.34535543 </v>
   <v>       0.86666667       0.93333333       0.34535543 </v>
   <v>       0.06666667       0.13333333       0.46518382 </v>
   <v>       0.26666667       0.13333333       0.46518382 </v>
   <v>       0.46666667       0.13333333       0.46518382 </v>
   <v>       0.66666667       0.13333333       0.46518382 </v>
   <v>       0.86666667       0.13333333       0.46518382 </v>
   <v>       0.06666667       0.33333333       0.46518382 </v>
   <v>       0.26666667       0.33333333       0.46518382 </v>
   <v>       0.46666667       0.33333333       0.46518382 </v>
   <v>       0.66666667       0.33333333       0.46518382 </v>
   <v>       0.86666667       0.33333333       0.46518382 </v>
   <v>       0.06666667       0.53333333       0.46518382 </v>
   <v>       0.26666667       0.53333333       0.46518382 </v>
   <v>       0.46666667       0.53333333       0.46518382 </v>
   <v>       0.66666667       0.53333333       0.46518382 </v>
   <v>       0.86666667       0.53333333       0.46518382 </v>
   <v>       0.06666667       0.73333333       0.46518382 </v>
   <v>       0.26666667       0.73333333       0.46518382 </v>
   <v>       0.46666667       0.73333333       0.46518382 </v>
   <v>       0.66666667       0.73333333       0.46518382 </v>
   <v>       0.86666667       0.73333333       0.46518382 </v>
   <v>       0.06666667       0.93333333       0.46518382 </v>
   <v>       0.26666667       0.93333333       0.46518382 </v>
   <v>       0.46666667       0.93333333       0.46518382 </v>
   <v>       0.66666667       0.93333333       0.46518382 </v>
   <v>       0.86666667       0.93333333       0.46518382 </v>
  </varray>
 </structure>
</modeling>
