<?xml version="1.0" encoding="ISO-8859-1"?>
<modeling>
 <generator>
  <i name="program" type="string">vasp </i>
  <i name="version" type="string">5.3.3  </i>
  <i name="subversion" type="string">18Dez12 (build Oct  3 2015 22:05:41) complex                          parallel </i>
  <i name="platform" type="string">BGQ </i>
  <i name="date" type="string">2018 02 12 </i>
  <i name="time" type="string">10:22:57 </i>
 </generator>
 <incar>
  <i type="string" name="SYSTEM"> ZrSiO4_U</i>
  <i type="int" name="ISTART">     1</i>
  <i type="string" name="PREC">accurate</i>
  <i type="string" name="ALGO"> Normal</i>
  <i type="int" name="NSIM">     1</i>
  <i type="logical" name="ADDGRID"> T  </i>
  <i type="int" name="ICHARG">     1</i>
  <i type="int" name="IBRION">    -1</i>
  <i name="EDIFF">      0.00000001</i>
  <i type="int" name="NSW">     0</i>
  <i type="int" name="ISIF">     2</i>
  <i name="ENCUT">    600.00000000</i>
  <i type="logical" name="LREAL"> F  </i>
  <i type="logical" name="LPLANE"> F  </i>
  <i type="int" name="ISMEAR">     0</i>
  <i name="SIGMA">      0.01000000</i>
  <i type="logical" name="LWAVE"> F  </i>
  <i type="logical" name="LCHARG"> F  </i>
 </incar>
 <kpoints>
  <generation param="Gamma">
   <v type="int" name="divisions">       2        2        1 </v>
   <v name="usershift">      0.00000000       0.00000000       0.00000000 </v>
   <v name="genvec1">      0.50000000       0.00000000       0.00000000 </v>
   <v name="genvec2">      0.00000000       0.50000000       0.00000000 </v>
   <v name="genvec3">      0.00000000       0.00000000       1.00000000 </v>
   <v name="shift">      0.00000000       0.00000000       0.00000000 </v>
  </generation>
  <varray name="kpointlist" >
   <v>       0.00000000       0.00000000       0.00000000 </v>
   <v>       0.50000000       0.00000000       0.00000000 </v>
   <v>       0.00000000       0.50000000       0.00000000 </v>
   <v>       0.50000000       0.50000000       0.00000000 </v>
  </varray>
  <varray name="weights" >
   <v>       0.25000000 </v>
   <v>       0.25000000 </v>
   <v>       0.25000000 </v>
   <v>       0.25000000 </v>
  </varray>
 </kpoints>
 <parameters>
  <separator name="general" >
   <i type="string" name="SYSTEM">ZrSiO4_U</i>
   <i type="logical" name="LCOMPAT"> F  </i>
  </separator>
  <separator name="electronic" >
   <i type="string" name="PREC">accura</i>
   <i name="ENMAX">    600.00000000</i>
   <i name="ENAUG">    491.96400000</i>
   <i name="EDIFF">      0.00000001</i>
   <i type="int" name="IALGO">    38</i>
   <i type="int" name="IWAVPR">    10</i>
   <i type="int" name="NBANDS">   720</i>
   <i name="NELECT">   1200.00000000</i>
   <i type="int" name="TURBO">     0</i>
   <i type="int" name="IRESTART">     0</i>
   <i type="int" name="NREBOOT">     0</i>
   <i type="int" name="NMIN">     0</i>
   <i name="EREF">      0.00000000</i>
   <separator name="electronic smearing" >
    <i type="int" name="ISMEAR">     0</i>
    <i name="SIGMA">      0.01000000</i>
    <i name="KSPACING">      0.50000000</i>
    <i type="logical" name="KGAMMA"> T  </i>
   </separator>
   <separator name="electronic projectors" >
    <i type="logical" name="LREAL"> F  </i>
    <v name="ROPT">      0.00000000      0.00000000</v>
    <i type="int" name="LMAXPAW">  -100</i>
    <i type="int" name="LMAXMIX">     2</i>
    <i type="logical" name="NLSPLINE"> F  </i>
   </separator>
   <separator name="electronic startup" >
    <i type="int" name="ISTART">     0</i>
    <i type="int" name="ICHARG">     1</i>
    <i type="int" name="INIWAV">     1</i>
   </separator>
   <separator name="electronic spin" >
    <i type="int" name="ISPIN">     1</i>
    <i type="logical" name="LNONCOLLINEAR"> F  </i>
    <v name="MAGMOM">      1.00000000      1.00000000      1.00000000      1.00000000      1.00000000      1.00000000      1.00000000      1.00000000      1.00000000      1.00000000      1.00000000      1.00000000      1.00000000      1.00000000      1.00000000      1.00000000      1.00000000      1.00000000      1.00000000      1.00000000
      1.00000000      1.00000000      1.00000000      1.00000000      1.00000000      1.00000000      1.00000000      1.00000000      1.00000000      1.00000000      1.00000000      1.00000000      1.00000000      1.00000000      1.00000000      1.00000000      1.00000000      1.00000000      1.00000000      1.00000000
      1.00000000      1.00000000      1.00000000      1.00000000      1.00000000      1.00000000      1.00000000      1.00000000      1.00000000      1.00000000      1.00000000      1.00000000      1.00000000      1.00000000      1.00000000      1.00000000      1.00000000      1.00000000      1.00000000      1.00000000
      1.00000000      1.00000000      1.00000000      1.00000000      1.00000000      1.00000000      1.00000000      1.00000000      1.00000000      1.00000000      1.00000000      1.00000000      1.00000000      1.00000000      1.00000000      1.00000000      1.00000000      1.00000000      1.00000000      1.00000000
      1.00000000      1.00000000      1.00000000      1.00000000      1.00000000      1.00000000      1.00000000      1.00000000      1.00000000      1.00000000      1.00000000      1.00000000      1.00000000      1.00000000      1.00000000      1.00000000      1.00000000      1.00000000      1.00000000      1.00000000
      1.00000000      1.00000000      1.00000000      1.00000000      1.00000000      1.00000000      1.00000000      1.00000000      1.00000000      1.00000000      1.00000000      1.00000000      1.00000000      1.00000000      1.00000000      1.00000000      1.00000000      1.00000000      1.00000000      1.00000000
      1.00000000      1.00000000      1.00000000      1.00000000      1.00000000      1.00000000      1.00000000      1.00000000      1.00000000      1.00000000      1.00000000      1.00000000      1.00000000      1.00000000      1.00000000      1.00000000      1.00000000      1.00000000      1.00000000      1.00000000
      1.00000000      1.00000000      1.00000000      1.00000000      1.00000000      1.00000000      1.00000000      1.00000000      1.00000000      1.00000000</v>
    <i name="NUPDOWN">     -1.00000000</i>
    <i type="logical" name="LSORBIT"> F  </i>
    <v name="SAXIS">      0.00000000      0.00000000      1.00000000</v>
    <i type="logical" name="LSPIRAL"> F  </i>
    <v name="QSPIRAL">      0.00000000      0.00000000      0.00000000</v>
    <i type="logical" name="LZEROZ"> F  </i>
   </separator>
   <separator name="electronic exchange-correlation" >
    <i type="logical" name="LASPH"> F  </i>
    <i type="logical" name="LMETAGGA"> F  </i>
   </separator>
   <separator name="electronic convergence" >
    <i type="int" name="NELM">    60</i>
    <i type="int" name="NELMDL">     0</i>
    <i type="int" name="NELMIN">     2</i>
    <i name="ENINI">    600.00000000</i>
    <separator name="electronic convergence detail" >
     <i type="logical" name="LDIAG"> T  </i>
     <i type="logical" name="LSUBROT"> T  </i>
     <i name="WEIMIN">      0.00000000</i>
     <i name="EBREAK">      0.00000000</i>
     <i name="DEPER">      0.30000000</i>
     <i type="int" name="NRMM">     4</i>
     <i name="TIME">      0.40000000</i>
    </separator>
   </separator>
   <separator name="electronic mixer" >
    <i name="AMIX">      0.40000000</i>
    <i name="BMIX">      1.00000000</i>
    <i name="AMIN">      0.10000000</i>
    <i name="AMIX_MAG">      1.60000000</i>
    <i name="BMIX_MAG">      1.00000000</i>
    <separator name="electronic mixer details" >
     <i type="int" name="IMIX">     4</i>
     <i type="int" name="MAXMIX">   -45</i>
     <i name="WC">    100.00000000</i>
     <i type="int" name="INIMIX">     1</i>
     <i type="int" name="MIXPRE">     1</i>
     <i type="int" name="MREMOVE">     5</i>
    </separator>
   </separator>
   <separator name="electronic dipolcorrection" >
    <i type="logical" name="LDIPOL"> F  </i>
    <i type="logical" name="LMONO"> F  </i>
    <i type="int" name="IDIPOL">     0</i>
    <i name="EPSILON">      1.00000000</i>
    <v name="DIPOL">   -100.00000000   -100.00000000   -100.00000000</v>
    <i name="EFIELD">      0.00000000</i>
   </separator>
  </separator>
  <separator name="grids" >
   <i type="int" name="NGX">   126</i>
   <i type="int" name="NGY">   126</i>
   <i type="int" name="NGZ">   210</i>
   <i type="int" name="NGXF">   252</i>
   <i type="int" name="NGYF">   252</i>
   <i type="int" name="NGZF">   420</i>
   <i type="logical" name="ADDGRID"> T  </i>
  </separator>
  <separator name="ionic" >
   <i type="int" name="NSW">     0</i>
   <i type="int" name="IBRION">    -1</i>
   <i type="int" name="ISIF">     2</i>
   <i name="PSTRESS">      0.00000000</i>
   <i name="EDIFFG">      0.00000010</i>
   <i type="int" name="NFREE">     0</i>
   <i name="POTIM">      0.50000000</i>
   <i name="SMASS">     -3.00000000</i>
   <i name="SCALEE">      1.00000000</i>
  </separator>
  <separator name="ionic md" >
   <i name="TEBEG">      0.00010000</i>
   <i name="TEEND">      0.00010000</i>
   <i type="int" name="NBLOCK">     1</i>
   <i type="int" name="KBLOCK">     1</i>
   <i type="int" name="NPACO">   256</i>
   <i name="APACO">     16.00000000</i>
  </separator>
  <separator name="symmetry" >
   <i type="int" name="ISYM">     2</i>
   <i name="SYMPREC">      0.00001000</i>
  </separator>
  <separator name="dos" >
   <i type="logical" name="LORBIT"> T  </i>
   <v name="RWIGS">     -1.00000000     -1.00000000</v>
   <i type="int" name="NEDOS">   301</i>
   <i name="EMIN">     10.00000000</i>
   <i name="EMAX">    -10.00000000</i>
   <i name="EFERMI">      0.00000000</i>
  </separator>
  <separator name="writing" >
   <i type="int" name="NWRITE">     2</i>
   <i type="logical" name="LWAVE"> F  </i>
   <i type="logical" name="LCHARG"> F  </i>
   <i type="logical" name="LPARD"> F  </i>
   <i type="logical" name="LVTOT"> F  </i>
   <i type="logical" name="LVHAR"> F  </i>
   <i type="logical" name="LELF"> F  </i>
   <i type="logical" name="LOPTICS"> F  </i>
   <v name="STM">      0.00000000      0.00000000      0.00000000      0.00000000      0.00000000      0.00000000      0.00000000</v>
  </separator>
  <separator name="performance" >
   <i type="int" name="NPAR">     8</i>
   <i type="int" name="NSIM">     1</i>
   <i type="int" name="NBLK">    -1</i>
   <i type="logical" name="LPLANE"> F  </i>
   <i type="logical" name="LSCALAPACK"> T  </i>
   <i type="logical" name="LSCAAWARE"> F  </i>
   <i type="logical" name="LSCALU"> F  </i>
   <i type="logical" name="LASYNC"> F  </i>
   <i type="logical" name="LORBITALREAL"> F  </i>
  </separator>
  <separator name="miscellaneous" >
   <i type="int" name="IDIOT">     3</i>
   <i type="logical" name="LMUSIC"> F  </i>
   <v name="POMASS">     95.94000000     32.06600000</v>
   <v name="DARWINR">      0.00000000      0.00000000</v>
   <v name="DARWINV">      1.00000000      1.00000000</v>
   <i type="logical" name="LCORR"> T  </i>
  </separator>
  <i type="logical" name="GGA_COMPAT"> T  </i>
  <i type="logical" name="LBERRY"> F  </i>
  <i type="int" name="ICORELEVEL">     0</i>
  <i type="logical" name="LDAU"> F  </i>
  <i type="int" name="I_CONSTRAINED_M">     0</i>
  <separator name="electronic exchange-correlation" >
   <i type="string" name="GGA">--</i>
   <i type="int" name="VOSKOWN">     0</i>
   <i type="logical" name="LHFCALC"> F  </i>
   <i type="string" name="PRECFOCK"></i>
   <i type="logical" name="LSYMGRAD"> F  </i>
   <i type="logical" name="LHFONE"> F  </i>
   <i type="logical" name="LRHFCALC"> F  </i>
   <i type="logical" name="LTHOMAS"> F  </i>
   <i type="logical" name="LMODELHF"> F  </i>
   <i name="ENCUT4O">     -1.00000000</i>
   <i type="int" name="EXXOEP">     0</i>
   <i type="int" name="FOURORBIT">     0</i>
   <i name="AEXX">      0.00000000</i>
   <i name="HFALPHA">      0.00000000</i>
   <i name="MCALPHA">      0.00000000</i>
   <i name="ALDAX">      1.00000000</i>
   <i name="AGGAX">      1.00000000</i>
   <i name="ALDAC">      1.00000000</i>
   <i name="AGGAC">      1.00000000</i>
   <i type="int" name="NKREDX">     1</i>
   <i type="int" name="NKREDY">     1</i>
   <i type="int" name="NKREDZ">     1</i>
   <i type="logical" name="SHIFTRED"> F  </i>
   <i type="logical" name="ODDONLY"> F  </i>
   <i type="logical" name="EVENONLY"> F  </i>
   <i type="int" name="LMAXFOCK">     0</i>
   <i type="int" name="NMAXFOCKAE">     0</i>
   <i type="logical" name="LFOCKAEDFT"> F  </i>
   <i name="HFSCREEN">      0.00000000</i>
   <i name="HFSCREENC">      0.00000000</i>
   <i type="int" name="NBANDSGWLOW">     0</i>
  </separator>
  <separator name="vdW DFT" >
   <i type="logical" name="LUSE_VDW"> F  </i>
   <i name="Zab_VDW">     -0.84910000</i>
   <i name="PARAM1">      0.12340000</i>
   <i name="PARAM2">      1.00000000</i>
   <i name="PARAM3">      0.00000000</i>
  </separator>
  <separator name="model GW" >
   <i type="int" name="MODEL_GW">     0</i>
   <i name="MODEL_EPS0">     22.07799716</i>
   <i name="MODEL_ALPHA">      1.00000000</i>
  </separator>
  <separator name="linear response parameters" >
   <i type="logical" name="LEPSILON"> F  </i>
   <i type="logical" name="LRPA"> F  </i>
   <i type="logical" name="LNABLA"> F  </i>
   <i type="logical" name="LVEL"> F  </i>
   <i type="int" name="KINTER">     0</i>
   <i name="CSHIFT">      0.10000000</i>
   <i name="OMEGAMAX">     -1.00000000</i>
   <i name="DEG_THRESHOLD">      0.00200000</i>
  </separator>
  <separator name="orbital magnetization" >
   <i type="logical" name="NUCIND"> F  </i>
   <v name="MAGPOS">      0.00000000      0.00000000      0.00000000</v>
   <i type="logical" name="LNICSALL"> T  </i>
   <i type="logical" name="ORBITALMAG"> F  </i>
   <i type="logical" name="LMAGBLOCH"> F  </i>
   <i type="logical" name="LCHIMAG"> F  </i>
   <i type="logical" name="LGAUGE"> T  </i>
   <i type="int" name="MAGATOM">     0</i>
   <v name="MAGDIPOL">      0.00000000      0.00000000      0.00000000</v>
   <v name="AVECCONST">      0.00000000      0.00000000      0.00000000</v>
  </separator>
  <separator name="response functions" >
   <i type="logical" name="LADDER"> F  </i>
   <i type="logical" name="LFXC"> F  </i>
   <i type="logical" name="LHARTREE"> T  </i>
   <i type="int" name="IBSE">     0</i>
   <i type="logical" name="LTCTE"> F  </i>
   <i type="logical" name="LTETE"> F  </i>
   <i type="logical" name="LTRIPLET"> F  </i>
   <i type="logical" name="LFXCEPS"> F  </i>
   <i type="logical" name="L2ORDER"> F  </i>
   <i type="logical" name="LUSEW"> F  </i>
   <i name="ENCUTGW">     -2.00000000</i>
   <i name="ENCUTGWSOFT">     -2.00000000</i>
   <i name="ENCUTLF">     -1.00000000</i>
   <i type="int" name="LMAXMP2">    -1</i>
   <i name="SCISSOR">      0.00000000</i>
   <i type="int" name="NOMEGA">     0</i>
   <i type="int" name="NOMEGAR">     0</i>
   <i type="int" name="NBANDSGW">    -1</i>
   <i type="int" name="NBANDSO">    -1</i>
   <i type="int" name="NBANDSV">    -1</i>
   <i type="int" name="NELM">     1</i>
   <i type="int" name="DIM">     3</i>
   <i type="int" name="ANTIRES">     0</i>
   <i name="OMEGAMAX">    -30.00000000</i>
   <i name="OMEGATL">   -200.00000000</i>
   <i type="int" name="OMEGAGRID">     0</i>
   <i name="CSHIFT">     -0.10000000</i>
   <i type="logical" name="SELFENERGY"> F  </i>
   <i type="logical" name="LSPECTRAL"> F  </i>
   <i type="logical" name="ODDONLYGW"> F  </i>
   <i type="logical" name="EVENONLYGW"> F  </i>
   <i type="int" name="NKREDLFX">     1</i>
   <i type="int" name="NKREDLFY">     1</i>
   <i type="int" name="NKREDLFZ">     1</i>
   <i type="int" name="MAXMEM">  1800</i>
   <i type="int" name="TELESCOPE">     0</i>
  </separator>
 </parameters>
 <atominfo>
  <atoms>     150 </atoms>
  <types>       2 </types>
  <array name="atoms" >
   <dimension dim="1">ion</dimension>
   <field type="string">element</field>
   <field type="int">atomtype</field>
   <set>
    <rc><c>Mo</c><c>   1</c></rc>
    <rc><c>Mo</c><c>   1</c></rc>
    <rc><c>Mo</c><c>   1</c></rc>
    <rc><c>Mo</c><c>   1</c></rc>
    <rc><c>Mo</c><c>   1</c></rc>
    <rc><c>Mo</c><c>   1</c></rc>
    <rc><c>Mo</c><c>   1</c></rc>
    <rc><c>Mo</c><c>   1</c></rc>
    <rc><c>Mo</c><c>   1</c></rc>
    <rc><c>Mo</c><c>   1</c></rc>
    <rc><c>Mo</c><c>   1</c></rc>
    <rc><c>Mo</c><c>   1</c></rc>
    <rc><c>Mo</c><c>   1</c></rc>
    <rc><c>Mo</c><c>   1</c></rc>
    <rc><c>Mo</c><c>   1</c></rc>
    <rc><c>Mo</c><c>   1</c></rc>
    <rc><c>Mo</c><c>   1</c></rc>
    <rc><c>Mo</c><c>   1</c></rc>
    <rc><c>Mo</c><c>   1</c></rc>
    <rc><c>Mo</c><c>   1</c></rc>
    <rc><c>Mo</c><c>   1</c></rc>
    <rc><c>Mo</c><c>   1</c></rc>
    <rc><c>Mo</c><c>   1</c></rc>
    <rc><c>Mo</c><c>   1</c></rc>
    <rc><c>Mo</c><c>   1</c></rc>
    <rc><c>Mo</c><c>   1</c></rc>
    <rc><c>Mo</c><c>   1</c></rc>
    <rc><c>Mo</c><c>   1</c></rc>
    <rc><c>Mo</c><c>   1</c></rc>
    <rc><c>Mo</c><c>   1</c></rc>
    <rc><c>Mo</c><c>   1</c></rc>
    <rc><c>Mo</c><c>   1</c></rc>
    <rc><c>Mo</c><c>   1</c></rc>
    <rc><c>Mo</c><c>   1</c></rc>
    <rc><c>Mo</c><c>   1</c></rc>
    <rc><c>Mo</c><c>   1</c></rc>
    <rc><c>Mo</c><c>   1</c></rc>
    <rc><c>Mo</c><c>   1</c></rc>
    <rc><c>Mo</c><c>   1</c></rc>
    <rc><c>Mo</c><c>   1</c></rc>
    <rc><c>Mo</c><c>   1</c></rc>
    <rc><c>Mo</c><c>   1</c></rc>
    <rc><c>Mo</c><c>   1</c></rc>
    <rc><c>Mo</c><c>   1</c></rc>
    <rc><c>Mo</c><c>   1</c></rc>
    <rc><c>Mo</c><c>   1</c></rc>
    <rc><c>Mo</c><c>   1</c></rc>
    <rc><c>Mo</c><c>   1</c></rc>
    <rc><c>Mo</c><c>   1</c></rc>
    <rc><c>Mo</c><c>   1</c></rc>
    <rc><c>S </c><c>   2</c></rc>
    <rc><c>S </c><c>   2</c></rc>
    <rc><c>S </c><c>   2</c></rc>
    <rc><c>S </c><c>   2</c></rc>
    <rc><c>S </c><c>   2</c></rc>
    <rc><c>S </c><c>   2</c></rc>
    <rc><c>S </c><c>   2</c></rc>
    <rc><c>S </c><c>   2</c></rc>
    <rc><c>S </c><c>   2</c></rc>
    <rc><c>S </c><c>   2</c></rc>
    <rc><c>S </c><c>   2</c></rc>
    <rc><c>S </c><c>   2</c></rc>
    <rc><c>S </c><c>   2</c></rc>
    <rc><c>S </c><c>   2</c></rc>
    <rc><c>S </c><c>   2</c></rc>
    <rc><c>S </c><c>   2</c></rc>
    <rc><c>S </c><c>   2</c></rc>
    <rc><c>S </c><c>   2</c></rc>
    <rc><c>S </c><c>   2</c></rc>
    <rc><c>S </c><c>   2</c></rc>
    <rc><c>S </c><c>   2</c></rc>
    <rc><c>S </c><c>   2</c></rc>
    <rc><c>S </c><c>   2</c></rc>
    <rc><c>S </c><c>   2</c></rc>
    <rc><c>S </c><c>   2</c></rc>
    <rc><c>S </c><c>   2</c></rc>
    <rc><c>S </c><c>   2</c></rc>
    <rc><c>S </c><c>   2</c></rc>
    <rc><c>S </c><c>   2</c></rc>
    <rc><c>S </c><c>   2</c></rc>
    <rc><c>S </c><c>   2</c></rc>
    <rc><c>S </c><c>   2</c></rc>
    <rc><c>S </c><c>   2</c></rc>
    <rc><c>S </c><c>   2</c></rc>
    <rc><c>S </c><c>   2</c></rc>
    <rc><c>S </c><c>   2</c></rc>
    <rc><c>S </c><c>   2</c></rc>
    <rc><c>S </c><c>   2</c></rc>
    <rc><c>S </c><c>   2</c></rc>
    <rc><c>S </c><c>   2</c></rc>
    <rc><c>S </c><c>   2</c></rc>
    <rc><c>S </c><c>   2</c></rc>
    <rc><c>S </c><c>   2</c></rc>
    <rc><c>S </c><c>   2</c></rc>
    <rc><c>S </c><c>   2</c></rc>
    <rc><c>S </c><c>   2</c></rc>
    <rc><c>S </c><c>   2</c></rc>
    <rc><c>S </c><c>   2</c></rc>
    <rc><c>S </c><c>   2</c></rc>
    <rc><c>S </c><c>   2</c></rc>
    <rc><c>S </c><c>   2</c></rc>
    <rc><c>S </c><c>   2</c></rc>
    <rc><c>S </c><c>   2</c></rc>
    <rc><c>S </c><c>   2</c></rc>
    <rc><c>S </c><c>   2</c></rc>
    <rc><c>S </c><c>   2</c></rc>
    <rc><c>S </c><c>   2</c></rc>
    <rc><c>S </c><c>   2</c></rc>
    <rc><c>S </c><c>   2</c></rc>
    <rc><c>S </c><c>   2</c></rc>
    <rc><c>S </c><c>   2</c></rc>
    <rc><c>S </c><c>   2</c></rc>
    <rc><c>S </c><c>   2</c></rc>
    <rc><c>S </c><c>   2</c></rc>
    <rc><c>S </c><c>   2</c></rc>
    <rc><c>S </c><c>   2</c></rc>
    <rc><c>S </c><c>   2</c></rc>
    <rc><c>S </c><c>   2</c></rc>
    <rc><c>S </c><c>   2</c></rc>
    <rc><c>S </c><c>   2</c></rc>
    <rc><c>S </c><c>   2</c></rc>
    <rc><c>S </c><c>   2</c></rc>
    <rc><c>S </c><c>   2</c></rc>
    <rc><c>S </c><c>   2</c></rc>
    <rc><c>S </c><c>   2</c></rc>
    <rc><c>S </c><c>   2</c></rc>
    <rc><c>S </c><c>   2</c></rc>
    <rc><c>S </c><c>   2</c></rc>
    <rc><c>S </c><c>   2</c></rc>
    <rc><c>S </c><c>   2</c></rc>
    <rc><c>S </c><c>   2</c></rc>
    <rc><c>S </c><c>   2</c></rc>
    <rc><c>S </c><c>   2</c></rc>
    <rc><c>S </c><c>   2</c></rc>
    <rc><c>S </c><c>   2</c></rc>
    <rc><c>S </c><c>   2</c></rc>
    <rc><c>S </c><c>   2</c></rc>
    <rc><c>S </c><c>   2</c></rc>
    <rc><c>S </c><c>   2</c></rc>
    <rc><c>S </c><c>   2</c></rc>
    <rc><c>S </c><c>   2</c></rc>
    <rc><c>S </c><c>   2</c></rc>
    <rc><c>S </c><c>   2</c></rc>
    <rc><c>S </c><c>   2</c></rc>
    <rc><c>S </c><c>   2</c></rc>
    <rc><c>S </c><c>   2</c></rc>
    <rc><c>S </c><c>   2</c></rc>
    <rc><c>S </c><c>   2</c></rc>
    <rc><c>S </c><c>   2</c></rc>
    <rc><c>S </c><c>   2</c></rc>
   </set>
  </array>
  <array name="atomtypes" >
   <dimension dim="1">type</dimension>
   <field type="int">atomspertype</field>
   <field type="string">element</field>
   <field>mass</field>
   <field>valence</field>
   <field type="string">pseudopotential</field>
   <set>
    <rc><c>  50</c><c>Mo</c><c>     95.94000000</c><c>     12.00000000</c><c> PAW Mo_pv 08Jan2002                    </c></rc>
    <rc><c> 100</c><c>S </c><c>     32.06600000</c><c>      6.00000000</c><c>  PAW S_h 21Jan2003                     </c></rc>
   </set>
  </array>
 </atominfo>
 <structure name="initialpos" >
  <crystal>
   <varray name="basis" >
    <v>      15.65451448      -0.00000001       0.00000000 </v>
    <v>      -7.82725475      13.55720592       0.00000000 </v>
    <v>       0.00000000       0.00000000      26.00697779 </v>
   </varray>
   <i name="volume">   5519.49928921 </i>
   <varray name="rec_basis" >
    <v>       0.06387934       0.03688074       0.00000000 </v>
    <v>       0.00000000       0.07376151       0.00000000 </v>
    <v>       0.00000000       0.00000000       0.03845122 </v>
   </varray>
  </crystal>
  <varray name="positions" >
   <v>       0.06666667       0.13333333       0.17304109 </v>
   <v>       0.26666667       0.13333333       0.17304109 </v>
   <v>       0.46666667       0.13333333       0.17304109 </v>
   <v>       0.66666667       0.13333333       0.17304109 </v>
   <v>       0.86666667       0.13333333       0.17304109 </v>
   <v>       0.06666667       0.33333333       0.17304109 </v>
   <v>       0.26666667       0.33333333       0.17304109 </v>
   <v>       0.46666667       0.33333333       0.17304109 </v>
   <v>       0.66666667       0.33333333       0.17304109 </v>
   <v>       0.86666667       0.33333333       0.17304109 </v>
   <v>       0.06666667       0.53333333       0.17304109 </v>
   <v>       0.26666667       0.53333333       0.17304109 </v>
   <v>       0.46666667       0.53333333       0.17304109 </v>
   <v>       0.66666667       0.53333333       0.17304109 </v>
   <v>       0.86666667       0.53333333       0.17304109 </v>
   <v>       0.06666667       0.73333333       0.17304109 </v>
   <v>       0.26666667       0.73333333       0.17304109 </v>
   <v>       0.46666667       0.73333333       0.17304109 </v>
   <v>       0.66666667       0.73333333       0.17304109 </v>
   <v>       0.86666667       0.73333333       0.17304109 </v>
   <v>       0.06666667       0.93333333       0.17304109 </v>
   <v>       0.26666667       0.93333333       0.17304109 </v>
   <v>       0.46666667       0.93333333       0.17304109 </v>
   <v>       0.66666667       0.93333333       0.17304109 </v>
   <v>       0.86666667       0.93333333       0.17304109 </v>
   <v>       0.13333333       0.06666667       0.40532935 </v>
   <v>       0.33333333       0.06666667       0.40532935 </v>
   <v>       0.53333333       0.06666667       0.40532935 </v>
   <v>       0.73333333       0.06666667       0.40532935 </v>
   <v>       0.93333333       0.06666667       0.40532935 </v>
   <v>       0.13333333       0.26666667       0.40532935 </v>
   <v>       0.33333333       0.26666667       0.40532935 </v>
   <v>       0.53333333       0.26666667       0.40532935 </v>
   <v>       0.73333333       0.26666667       0.40532935 </v>
   <v>       0.93333333       0.26666667       0.40532935 </v>
   <v>       0.13333333       0.46666667       0.40532935 </v>
   <v>       0.33333333       0.46666667       0.40532935 </v>
   <v>       0.53333333       0.46666667       0.40532935 </v>
   <v>       0.73333333       0.46666667       0.40532935 </v>
   <v>       0.93333333       0.46666667       0.40532935 </v>
   <v>       0.13333333       0.66666667       0.40532935 </v>
   <v>       0.33333333       0.66666667       0.40532935 </v>
   <v>       0.53333333       0.66666667       0.40532935 </v>
   <v>       0.73333333       0.66666667       0.40532935 </v>
   <v>       0.93333333       0.66666667       0.40532935 </v>
   <v>       0.13333333       0.86666667       0.40532935 </v>
   <v>       0.33333333       0.86666667       0.40532935 </v>
   <v>       0.53333333       0.86666667       0.40532935 </v>
   <v>       0.73333333       0.86666667       0.40532935 </v>
   <v>       0.93333333       0.86666667       0.40532935 </v>
   <v>       0.13300390       0.06666667       0.11285718 </v>
   <v>       0.33333333       0.06666667       0.11318662 </v>
   <v>       0.53333333       0.06666667       0.11318662 </v>
   <v>       0.73333333       0.06666667       0.11318662 </v>
   <v>       0.93333333       0.06666667       0.11318662 </v>
   <v>       0.13333333       0.26666667       0.11318662 </v>
   <v>       0.33333333       0.26666667       0.11318662 </v>
   <v>       0.53333333       0.26666667       0.11318662 </v>
   <v>       0.73333333       0.26666667       0.11318662 </v>
   <v>       0.93333333       0.26666667       0.11318662 </v>
   <v>       0.13333333       0.46666667       0.11318662 </v>
   <v>       0.33333333       0.46666667       0.11318662 </v>
   <v>       0.53333333       0.46666667       0.11318662 </v>
   <v>       0.73333333       0.46666667       0.11318662 </v>
   <v>       0.93333333       0.46666667       0.11318662 </v>
   <v>       0.13333333       0.66666667       0.11318662 </v>
   <v>       0.33333333       0.66666667       0.11318662 </v>
   <v>       0.53333333       0.66666667       0.11318662 </v>
   <v>       0.73333333       0.66666667       0.11318662 </v>
   <v>       0.93333333       0.66666667       0.11318662 </v>
   <v>       0.13333333       0.86666667       0.11318662 </v>
   <v>       0.33333333       0.86666667       0.11318662 </v>
   <v>       0.53333333       0.86666667       0.11318662 </v>
   <v>       0.73333333       0.86666667       0.11318662 </v>
   <v>       0.93333333       0.86666667       0.11318662 </v>
   <v>       0.13333333       0.06666667       0.23301500 </v>
   <v>       0.33333333       0.06666667       0.23301500 </v>
   <v>       0.53333333       0.06666667       0.23301500 </v>
   <v>       0.73333333       0.06666667       0.23301500 </v>
   <v>       0.93333333       0.06666667       0.23301500 </v>
   <v>       0.13333333       0.26666667       0.23301500 </v>
   <v>       0.33333333       0.26666667       0.23301500 </v>
   <v>       0.53333333       0.26666667       0.23301500 </v>
   <v>       0.73333333       0.26666667       0.23301500 </v>
   <v>       0.93333333       0.26666667       0.23301500 </v>
   <v>       0.13333333       0.46666667       0.23301500 </v>
   <v>       0.33333333       0.46666667       0.23301500 </v>
   <v>       0.53333333       0.46666667       0.23301500 </v>
   <v>       0.73333333       0.46666667       0.23301500 </v>
   <v>       0.93333333       0.46666667       0.23301500 </v>
   <v>       0.13333333       0.66666667       0.23301500 </v>
   <v>       0.33333333       0.66666667       0.23301500 </v>
   <v>       0.53333333       0.66666667       0.23301500 </v>
   <v>       0.73333333       0.66666667       0.23301500 </v>
   <v>       0.93333333       0.66666667       0.23301500 </v>
   <v>       0.13333333       0.86666667       0.23301500 </v>
   <v>       0.33333333       0.86666667       0.23301500 </v>
   <v>       0.53333333       0.86666667       0.23301500 </v>
   <v>       0.73333333       0.86666667       0.23301500 </v>
   <v>       0.93333333       0.86666667       0.23301500 </v>
   <v>       0.06666667       0.13333333       0.34535543 </v>
   <v>       0.26666667       0.13333333       0.34535543 </v>
   <v>       0.46666667       0.13333333       0.34535543 </v>
   <v>       0.66666667       0.13333333       0.34535543 </v>
   <v>       0.86666667       0.13333333       0.34535543 </v>
   <v>       0.06666667       0.33333333       0.34535543 </v>
   <v>       0.26666667       0.33333333       0.34535543 </v>
   <v>       0.46666667       0.33333333       0.34535543 </v>
   <v>       0.66666667       0.33333333       0.34535543 </v>
   <v>       0.86666667       0.33333333       0.34535543 </v>
   <v>       0.06666667       0.53333333       0.34535543 </v>
   <v>       0.26666667       0.53333333       0.34535543 </v>
   <v>       0.46666667       0.53333333       0.34535543 </v>
   <v>       0.66666667       0.53333333       0.34535543 </v>
   <v>       0.86666667       0.53333333       0.34535543 </v>
   <v>       0.06666667       0.73333333       0.34535543 </v>
   <v>       0.26666667       0.73333333       0.34535543 </v>
   <v>       0.46666667       0.73333333       0.34535543 </v>
   <v>       0.66666667       0.73333333       0.34535543 </v>
   <v>       0.86666667       0.73333333       0.34535543 </v>
   <v>       0.06666667       0.93333333       0.34535543 </v>
   <v>       0.26666667       0.93333333       0.34535543 </v>
   <v>       0.46666667       0.93333333       0.34535543 </v>
   <v>       0.66666667       0.93333333       0.34535543 </v>
   <v>       0.86666667       0.93333333       0.34535543 </v>
   <v>       0.06666667       0.13333333       0.46518382 </v>
   <v>       0.26666667       0.13333333       0.46518382 </v>
   <v>       0.46666667       0.13333333       0.46518382 </v>
   <v>       0.66666667       0.13333333       0.46518382 </v>
   <v>       0.86666667       0.13333333       0.46518382 </v>
   <v>       0.06666667       0.33333333       0.46518382 </v>
   <v>       0.26666667       0.33333333       0.46518382 </v>
   <v>       0.46666667       0.33333333       0.46518382 </v>
   <v>       0.66666667       0.33333333       0.46518382 </v>
   <v>       0.86666667       0.33333333       0.46518382 </v>
   <v>       0.06666667       0.53333333       0.46518382 </v>
   <v>       0.26666667       0.53333333       0.46518382 </v>
   <v>       0.46666667       0.53333333       0.46518382 </v>
   <v>       0.66666667       0.53333333       0.46518382 </v>
   <v>       0.86666667       0.53333333       0.46518382 </v>
   <v>       0.06666667       0.73333333       0.46518382 </v>
   <v>       0.26666667       0.73333333       0.46518382 </v>
   <v>       0.46666667       0.73333333       0.46518382 </v>
   <v>       0.66666667       0.73333333       0.46518382 </v>
   <v>       0.86666667       0.73333333       0.46518382 </v>
   <v>       0.06666667       0.93333333       0.46518382 </v>
   <v>       0.26666667       0.93333333       0.46518382 </v>
   <v>       0.46666667       0.93333333       0.46518382 </v>
   <v>       0.66666667       0.93333333       0.46518382 </v>
   <v>       0.86666667       0.93333333       0.46518382 </v>
  </varray>
 </structure>
 <calculation>
  <scstep>
   <time name="dav">******** 1583.75</time>
   <time name="total">******** 1588.45</time>
   <energy>
    <i name="alphaZ">   2096.25038681 </i>
    <i name="ewald"> 360961.51037914 </i>
    <i name="hartreedc">-445120.55622393 </i>
    <i name="XCdc">   2152.99654763 </i>
    <i name="pawpsdc">  49961.83574437 </i>
    <i name="pawaedc"> -47918.29686678 </i>
    <i name="eentropy">     -0.00289924 </i>
    <i name="bandstr">  -3160.28656874 </i>
    <i name="atom">  92113.52951886 </i>
    <i name="e_fr_energy">  11086.98001811 </i>
    <i name="e_wo_entrp">  11086.98291735 </i>
    <i name="e_0_energy">  11086.98146773 </i>
   </energy>
  </scstep>
  <scstep>
   <time name="dav">******** 1646.37</time>
   <time name="total"> 1646.57 1646.57</time>
   <energy>
    <i name="e_fr_energy">   -269.34748925 </i>
    <i name="e_wo_entrp">   -269.34748925 </i>
    <i name="e_0_energy">   -269.34748925 </i>
   </energy>
  </scstep>
  <scstep>
   <time name="dav">******** 1638.76</time>
   <time name="total"> 1638.95 1638.95</time>
   <energy>
    <i name="e_fr_energy">  -1232.16084470 </i>
    <i name="e_wo_entrp">  -1232.16084470 </i>
    <i name="e_0_energy">  -1232.16084470 </i>
   </energy>
  </scstep>
  <scstep>
   <time name="dav">******** 1808.58</time>
   <time name="total"> 1808.80 1808.80</time>
   <energy>
    <i name="e_fr_energy">  -1284.12830462 </i>
    <i name="e_wo_entrp">  -1284.12830462 </i>
    <i name="e_0_energy">  -1284.12830462 </i>
   </energy>
  </scstep>
  <scstep>
   <time name="dav">******** 1988.84</time>
   <time name="total">85764.79 2069.94</time>
   <energy>
    <i name="e_fr_energy">  -1286.13355317 </i>
    <i name="e_wo_entrp">  -1286.13355317 </i>
    <i name="e_0_energy">  -1286.13355317 </i>
   </energy>
  </scstep>
  <scstep>
   <time name="dav">******** 1802.66</time>
   <time name="total"> 1888.28 1888.28</time>
   <energy>
    <i name="e_fr_energy">  -1231.43648968 </i>
    <i name="e_wo_entrp">  -1231.43648968 </i>
    <i name="e_0_energy">  -1231.43648968 </i>
   </energy>
  </scstep>
  <scstep>
   <time name="dav">******** 1762.25</time>
   <time name="total"> 1847.70 1847.70</time>
   <energy>
    <i name="e_fr_energy">  -1216.81953105 </i>
    <i name="e_wo_entrp">  -1216.81953105 </i>
    <i name="e_0_energy">  -1216.81953105 </i>
   </energy>
  </scstep>
  <scstep>
   <time name="dav">******** 1667.59</time>
   <time name="total"> 1753.22 1753.22</time>
   <energy>
    <i name="e_fr_energy">  -1214.54920817 </i>
    <i name="e_wo_entrp">  -1214.54920817 </i>
    <i name="e_0_energy">  -1214.54920817 </i>
   </energy>
  </scstep>
  <scstep>
   <time name="dav">******** 1923.55</time>
   <time name="total"> 2009.02 2009.02</time>
   <energy>
    <i name="e_fr_energy">  -1214.46695727 </i>
    <i name="e_wo_entrp">  -1214.46695727 </i>
    <i name="e_0_energy">  -1214.46695727 </i>
   </energy>
  </scstep>
  <scstep>
   <time name="dav">******** 1806.37</time>
   <time name="total"> 1891.92 1891.92</time>
   <energy>
    <i name="e_fr_energy">  -1214.41376440 </i>
    <i name="e_wo_entrp">  -1214.41376440 </i>
    <i name="e_0_energy">  -1214.41376440 </i>
   </energy>
  </scstep>
  <scstep>
   <time name="dav">******** 1781.86</time>
   <time name="total"> 1867.53 1867.53</time>
   <energy>
    <i name="e_fr_energy">  -1214.40532893 </i>
    <i name="e_wo_entrp">  -1214.40532893 </i>
    <i name="e_0_energy">  -1214.40532893 </i>
   </energy>
  </scstep>
  <scstep>
   <time name="dav">******** 1730.51</time>
   <time name="total"> 1816.12 1816.12</time>
   <energy>
    <i name="e_fr_energy">  -1214.40661253 </i>
    <i name="e_wo_entrp">  -1214.40661253 </i>
    <i name="e_0_energy">  -1214.40661253 </i>
   </energy>
  </scstep>
  <scstep>
   <time name="dav">******** 1673.99</time>
   <time name="total"> 1759.55 1759.55</time>
   <energy>
    <i name="e_fr_energy">  -1214.41071538 </i>
    <i name="e_wo_entrp">  -1214.41071538 </i>
    <i name="e_0_energy">  -1214.41071538 </i>
   </energy>
  </scstep>
  <scstep>
   <time name="dav">******** 1656.28</time>
   <time name="total"> 1742.79 1742.79</time>
   <energy>
    <i name="e_fr_energy">  -1214.41459067 </i>
    <i name="e_wo_entrp">  -1214.41459067 </i>
    <i name="e_0_energy">  -1214.41459067 </i>
   </energy>
  </scstep>
  <scstep>
   <time name="dav">******** 1762.07</time>
   <time name="total"> 1848.49 1848.49</time>
   <energy>
    <i name="e_fr_energy">  -1214.41794094 </i>
    <i name="e_wo_entrp">  -1214.41794094 </i>
    <i name="e_0_energy">  -1214.41794094 </i>
   </energy>
  </scstep>
  <scstep>
   <time name="dav">******** 1667.05</time>
   <time name="total"> 1752.46 1752.46</time>
   <energy>
    <i name="e_fr_energy">  -1214.42102944 </i>
    <i name="e_wo_entrp">  -1214.42102944 </i>
    <i name="e_0_energy">  -1214.42102944 </i>
   </energy>
  </scstep>
  <scstep>
   <time name="dav">******** 1599.20</time>
   <time name="total"> 1684.43 1684.43</time>
   <energy>
    <i name="e_fr_energy">  -1214.42372014 </i>
    <i name="e_wo_entrp">  -1214.42372014 </i>
    <i name="e_0_energy">  -1214.42372014 </i>
   </energy>
  </scstep>
  <scstep>
   <time name="dav">******** 1684.41</time>
   <time name="total"> 1769.84 1769.84</time>
   <energy>
    <i name="e_fr_energy">  -1214.42465242 </i>
    <i name="e_wo_entrp">  -1214.42465242 </i>
    <i name="e_0_energy">  -1214.42465242 </i>
   </energy>
  </scstep>
  <scstep>
   <time name="dav">******** 1594.47</time>
   <time name="total"> 1679.83 1679.83</time>
   <energy>
    <i name="e_fr_energy">  -1214.42528313 </i>
    <i name="e_wo_entrp">  -1214.42528313 </i>
    <i name="e_0_energy">  -1214.42528313 </i>
   </energy>
  </scstep>
  <scstep>
   <time name="dav">******** 1608.28</time>
   <time name="total"> 1693.98 1693.98</time>
   <energy>
    <i name="e_fr_energy">  -1214.42561033 </i>
    <i name="e_wo_entrp">  -1214.42561033 </i>
    <i name="e_0_energy">  -1214.42561033 </i>
   </energy>
  </scstep>
  <scstep>
   <time name="dav">******** 1593.73</time>
   <time name="total"> 1679.12 1679.12</time>
   <energy>
    <i name="e_fr_energy">  -1214.42571971 </i>
    <i name="e_wo_entrp">  -1214.42571971 </i>
    <i name="e_0_energy">  -1214.42571971 </i>
   </energy>
  </scstep>
  <scstep>
   <time name="dav">******** 1627.40</time>
   <time name="total"> 1712.57 1712.57</time>
   <energy>
    <i name="e_fr_energy">  -1214.42581915 </i>
    <i name="e_wo_entrp">  -1214.42581915 </i>
    <i name="e_0_energy">  -1214.42581915 </i>
   </energy>
  </scstep>
  <scstep>
   <time name="dav">******** 1599.99</time>
   <time name="total"> 1685.16 1685.16</time>
   <energy>
    <i name="e_fr_energy">  -1214.42595944 </i>
    <i name="e_wo_entrp">  -1214.42595944 </i>
    <i name="e_0_energy">  -1214.42595944 </i>
   </energy>
  </scstep>
  <scstep>
   <time name="dav">******** 1608.83</time>
   <time name="total"> 1694.11 1694.11</time>
   <energy>
    <i name="e_fr_energy">  -1214.42611431 </i>
    <i name="e_wo_entrp">  -1214.42611431 </i>
    <i name="e_0_energy">  -1214.42611431 </i>
   </energy>
  </scstep>
  <scstep>
   <time name="dav">******** 1633.52</time>
   <time name="total"> 1718.79 1718.79</time>
   <energy>
    <i name="e_fr_energy">  -1214.42617479 </i>
    <i name="e_wo_entrp">  -1214.42617479 </i>
    <i name="e_0_energy">  -1214.42617479 </i>
   </energy>
  </scstep>
  <scstep>
   <time name="dav">******** 1463.64</time>
   <time name="total"> 1548.83 1548.83</time>
   <energy>
    <i name="e_fr_energy">  -1214.42622105 </i>
    <i name="e_wo_entrp">  -1214.42622105 </i>
    <i name="e_0_energy">  -1214.42622105 </i>
   </energy>
  </scstep>
  <scstep>
   <time name="dav">******** 1513.72</time>
   <time name="total"> 1598.94 1598.94</time>
   <energy>
    <i name="e_fr_energy">  -1214.42625261 </i>
    <i name="e_wo_entrp">  -1214.42625261 </i>
    <i name="e_0_energy">  -1214.42625261 </i>
   </energy>
  </scstep>
  <scstep>
   <time name="dav">******** 1360.18</time>
   <time name="total"> 1445.43 1445.43</time>
   <energy>
    <i name="e_fr_energy">  -1214.42626182 </i>
    <i name="e_wo_entrp">  -1214.42626182 </i>
    <i name="e_0_energy">  -1214.42626182 </i>
   </energy>
  </scstep>
  <scstep>
   <time name="dav">******** 1319.55</time>
   <time name="total"> 1404.95 1404.95</time>
   <energy>
    <i name="e_fr_energy">  -1214.42626633 </i>
    <i name="e_wo_entrp">  -1214.42626633 </i>
    <i name="e_0_energy">  -1214.42626633 </i>
   </energy>
  </scstep>
  <scstep>
   <time name="dav">******** 1222.87</time>
   <time name="total"> 1308.11 1308.11</time>
   <energy>
    <i name="e_fr_energy">  -1214.42626693 </i>
    <i name="e_wo_entrp">  -1214.42626693 </i>
    <i name="e_0_energy">  -1214.42626693 </i>
   </energy>
  </scstep>
  <scstep>
   <time name="dav">******** 1125.06</time>
   <time name="total"> 1210.19 1210.19</time>
   <energy>
    <i name="e_fr_energy">  -1214.42626716 </i>
    <i name="e_wo_entrp">  -1214.42626716 </i>
    <i name="e_0_energy">  -1214.42626716 </i>
   </energy>
  </scstep>
  <scstep>
   <time name="dav">******** 1158.33</time>
   <time name="total"> 1243.56 1243.56</time>
   <energy>
    <i name="e_fr_energy">  -1214.42626736 </i>
    <i name="e_wo_entrp">  -1214.42626736 </i>
    <i name="e_0_energy">  -1214.42626736 </i>
   </energy>
  </scstep>
  <scstep>
   <time name="dav">******** 1106.97</time>
   <time name="total"> 1192.22 1192.22</time>
   <energy>
    <i name="e_fr_energy">  -1214.42626743 </i>
    <i name="e_wo_entrp">  -1214.42626743 </i>
    <i name="e_0_energy">  -1214.42626743 </i>
   </energy>
  </scstep>
  <scstep>
   <time name="dav">******** 1070.01</time>
   <time name="total"> 1155.27 1155.27</time>
   <energy>
    <i name="e_fr_energy">  -1214.42626744 </i>
    <i name="e_wo_entrp">  -1214.42626744 </i>
    <i name="e_0_energy">  -1214.42626744 </i>
   </energy>
  </scstep>
  <scstep>
   <time name="dav">******** 1048.25</time>
   <time name="total">******** 1052.84</time>
   <energy>
    <i name="alphaZ">   2096.25038681 </i>
    <i name="ewald"> 360961.51037914 </i>
    <i name="hartreedc">-444993.20397828 </i>
    <i name="XCdc">   2130.71109593 </i>
    <i name="pawpsdc">  53563.68371120 </i>
    <i name="pawaedc"> -51760.50297579 </i>
    <i name="eentropy">      0.00000000 </i>
    <i name="bandstr"> -15326.40440532 </i>
    <i name="atom">  92113.52951886 </i>
    <i name="e_fr_energy">  -1214.42626745 </i>
    <i name="e_wo_entrp">  -1214.42626745 </i>
    <i name="e_0_energy">  -1214.42626745 </i>
   </energy>
  </scstep>
  <structure>
   <crystal>
    <varray name="basis" >
     <v>      15.65451448      -0.00000001       0.00000000 </v>
     <v>      -7.82725475      13.55720592       0.00000000 </v>
     <v>       0.00000000       0.00000000      26.00697779 </v>
    </varray>
    <i name="volume">   5519.49928921 </i>
    <varray name="rec_basis" >
     <v>       0.06387934       0.03688074       0.00000000 </v>
     <v>       0.00000000       0.07376151       0.00000000 </v>
     <v>       0.00000000       0.00000000       0.03845122 </v>
    </varray>
   </crystal>
   <varray name="positions" >
    <v>       0.06666667       0.13333333       0.17304109 </v>
    <v>       0.26666667       0.13333333       0.17304109 </v>
    <v>       0.46666667       0.13333333       0.17304109 </v>
    <v>       0.66666667       0.13333333       0.17304109 </v>
    <v>       0.86666667       0.13333333       0.17304109 </v>
    <v>       0.06666667       0.33333333       0.17304109 </v>
    <v>       0.26666667       0.33333333       0.17304109 </v>
    <v>       0.46666667       0.33333333       0.17304109 </v>
    <v>       0.66666667       0.33333333       0.17304109 </v>
    <v>       0.86666667       0.33333333       0.17304109 </v>
    <v>       0.06666667       0.53333333       0.17304109 </v>
    <v>       0.26666667       0.53333333       0.17304109 </v>
    <v>       0.46666667       0.53333333       0.17304109 </v>
    <v>       0.66666667       0.53333333       0.17304109 </v>
    <v>       0.86666667       0.53333333       0.17304109 </v>
    <v>       0.06666667       0.73333333       0.17304109 </v>
    <v>       0.26666667       0.73333333       0.17304109 </v>
    <v>       0.46666667       0.73333333       0.17304109 </v>
    <v>       0.66666667       0.73333333       0.17304109 </v>
    <v>       0.86666667       0.73333333       0.17304109 </v>
    <v>       0.06666667       0.93333333       0.17304109 </v>
    <v>       0.26666667       0.93333333       0.17304109 </v>
    <v>       0.46666667       0.93333333       0.17304109 </v>
    <v>       0.66666667       0.93333333       0.17304109 </v>
    <v>       0.86666667       0.93333333       0.17304109 </v>
    <v>       0.13333333       0.06666667       0.40532935 </v>
    <v>       0.33333333       0.06666667       0.40532935 </v>
    <v>       0.53333333       0.06666667       0.40532935 </v>
    <v>       0.73333333       0.06666667       0.40532935 </v>
    <v>       0.93333333       0.06666667       0.40532935 </v>
    <v>       0.13333333       0.26666667       0.40532935 </v>
    <v>       0.33333333       0.26666667       0.40532935 </v>
    <v>       0.53333333       0.26666667       0.40532935 </v>
    <v>       0.73333333       0.26666667       0.40532935 </v>
    <v>       0.93333333       0.26666667       0.40532935 </v>
    <v>       0.13333333       0.46666667       0.40532935 </v>
    <v>       0.33333333       0.46666667       0.40532935 </v>
    <v>       0.53333333       0.46666667       0.40532935 </v>
    <v>       0.73333333       0.46666667       0.40532935 </v>
    <v>       0.93333333       0.46666667       0.40532935 </v>
    <v>       0.13333333       0.66666667       0.40532935 </v>
    <v>       0.33333333       0.66666667       0.40532935 </v>
    <v>       0.53333333       0.66666667       0.40532935 </v>
    <v>       0.73333333       0.66666667       0.40532935 </v>
    <v>       0.93333333       0.66666667       0.40532935 </v>
    <v>       0.13333333       0.86666667       0.40532935 </v>
    <v>       0.33333333       0.86666667       0.40532935 </v>
    <v>       0.53333333       0.86666667       0.40532935 </v>
    <v>       0.73333333       0.86666667       0.40532935 </v>
    <v>       0.93333333       0.86666667       0.40532935 </v>
    <v>       0.13300390       0.06666667       0.11285718 </v>
    <v>       0.33333333       0.06666667       0.11318662 </v>
    <v>       0.53333333       0.06666667       0.11318662 </v>
    <v>       0.73333333       0.06666667       0.11318662 </v>
    <v>       0.93333333       0.06666667       0.11318662 </v>
    <v>       0.13333333       0.26666667       0.11318662 </v>
    <v>       0.33333333       0.26666667       0.11318662 </v>
    <v>       0.53333333       0.26666667       0.11318662 </v>
    <v>       0.73333333       0.26666667       0.11318662 </v>
    <v>       0.93333333       0.26666667       0.11318662 </v>
    <v>       0.13333333       0.46666667       0.11318662 </v>
    <v>       0.33333333       0.46666667       0.11318662 </v>
    <v>       0.53333333       0.46666667       0.11318662 </v>
    <v>       0.73333333       0.46666667       0.11318662 </v>
    <v>       0.93333333       0.46666667       0.11318662 </v>
    <v>       0.13333333       0.66666667       0.11318662 </v>
    <v>       0.33333333       0.66666667       0.11318662 </v>
    <v>       0.53333333       0.66666667       0.11318662 </v>
    <v>       0.73333333       0.66666667       0.11318662 </v>
    <v>       0.93333333       0.66666667       0.11318662 </v>
    <v>       0.13333333       0.86666667       0.11318662 </v>
    <v>       0.33333333       0.86666667       0.11318662 </v>
    <v>       0.53333333       0.86666667       0.11318662 </v>
    <v>       0.73333333       0.86666667       0.11318662 </v>
    <v>       0.93333333       0.86666667       0.11318662 </v>
    <v>       0.13333333       0.06666667       0.23301500 </v>
    <v>       0.33333333       0.06666667       0.23301500 </v>
    <v>       0.53333333       0.06666667       0.23301500 </v>
    <v>       0.73333333       0.06666667       0.23301500 </v>
    <v>       0.93333333       0.06666667       0.23301500 </v>
    <v>       0.13333333       0.26666667       0.23301500 </v>
    <v>       0.33333333       0.26666667       0.23301500 </v>
    <v>       0.53333333       0.26666667       0.23301500 </v>
    <v>       0.73333333       0.26666667       0.23301500 </v>
    <v>       0.93333333       0.26666667       0.23301500 </v>
    <v>       0.13333333       0.46666667       0.23301500 </v>
    <v>       0.33333333       0.46666667       0.23301500 </v>
    <v>       0.53333333       0.46666667       0.23301500 </v>
    <v>       0.73333333       0.46666667       0.23301500 </v>
    <v>       0.93333333       0.46666667       0.23301500 </v>
    <v>       0.13333333       0.66666667       0.23301500 </v>
    <v>       0.33333333       0.66666667       0.23301500 </v>
    <v>       0.53333333       0.66666667       0.23301500 </v>
    <v>       0.73333333       0.66666667       0.23301500 </v>
    <v>       0.93333333       0.66666667       0.23301500 </v>
    <v>       0.13333333       0.86666667       0.23301500 </v>
    <v>       0.33333333       0.86666667       0.23301500 </v>
    <v>       0.53333333       0.86666667       0.23301500 </v>
    <v>       0.73333333       0.86666667       0.23301500 </v>
    <v>       0.93333333       0.86666667       0.23301500 </v>
    <v>       0.06666667       0.13333333       0.34535543 </v>
    <v>       0.26666667       0.13333333       0.34535543 </v>
    <v>       0.46666667       0.13333333       0.34535543 </v>
    <v>       0.66666667       0.13333333       0.34535543 </v>
    <v>       0.86666667       0.13333333       0.34535543 </v>
    <v>       0.06666667       0.33333333       0.34535543 </v>
    <v>       0.26666667       0.33333333       0.34535543 </v>
    <v>       0.46666667       0.33333333       0.34535543 </v>
    <v>       0.66666667       0.33333333       0.34535543 </v>
    <v>       0.86666667       0.33333333       0.34535543 </v>
    <v>       0.06666667       0.53333333       0.34535543 </v>
    <v>       0.26666667       0.53333333       0.34535543 </v>
    <v>       0.46666667       0.53333333       0.34535543 </v>
    <v>       0.66666667       0.53333333       0.34535543 </v>
    <v>       0.86666667       0.53333333       0.34535543 </v>
    <v>       0.06666667       0.73333333       0.34535543 </v>
    <v>       0.26666667       0.73333333       0.34535543 </v>
    <v>       0.46666667       0.73333333       0.34535543 </v>
    <v>       0.66666667       0.73333333       0.34535543 </v>
    <v>       0.86666667       0.73333333       0.34535543 </v>
    <v>       0.06666667       0.93333333       0.34535543 </v>
    <v>       0.26666667       0.93333333       0.34535543 </v>
    <v>       0.46666667       0.93333333       0.34535543 </v>
    <v>       0.66666667       0.93333333       0.34535543 </v>
    <v>       0.86666667       0.93333333       0.34535543 </v>
    <v>       0.06666667       0.13333333       0.46518382 </v>
    <v>       0.26666667       0.13333333       0.46518382 </v>
    <v>       0.46666667       0.13333333       0.46518382 </v>
    <v>       0.66666667       0.13333333       0.46518382 </v>
    <v>       0.86666667       0.13333333       0.46518382 </v>
    <v>       0.06666667       0.33333333       0.46518382 </v>
    <v>       0.26666667       0.33333333       0.46518382 </v>
    <v>       0.46666667       0.33333333       0.46518382 </v>
    <v>       0.66666667       0.33333333       0.46518382 </v>
    <v>       0.86666667       0.33333333       0.46518382 </v>
    <v>       0.06666667       0.53333333       0.46518382 </v>
    <v>       0.26666667       0.53333333       0.46518382 </v>
    <v>       0.46666667       0.53333333       0.46518382 </v>
    <v>       0.66666667       0.53333333       0.46518382 </v>
    <v>       0.86666667       0.53333333       0.46518382 </v>
    <v>       0.06666667       0.73333333       0.46518382 </v>
    <v>       0.26666667       0.73333333       0.46518382 </v>
    <v>       0.46666667       0.73333333       0.46518382 </v>
    <v>       0.66666667       0.73333333       0.46518382 </v>
    <v>       0.86666667       0.73333333       0.46518382 </v>
    <v>       0.06666667       0.93333333       0.46518382 </v>
    <v>       0.26666667       0.93333333       0.46518382 </v>
    <v>       0.46666667       0.93333333       0.46518382 </v>
    <v>       0.66666667       0.93333333       0.46518382 </v>
    <v>       0.86666667       0.93333333       0.46518382 </v>
   </varray>
  </structure>
  <varray name="forces" >
   <v>       0.00394729      -0.00716288      -0.02404288 </v>
   <v>      -0.05062909      -0.02434477      -0.05825763 </v>
   <v>      -0.00024727      -0.00026885      -0.00035892 </v>
   <v>      -0.00007823       0.00012547       0.00068861 </v>
   <v>      -0.00048162       0.00017458       0.00032854 </v>
   <v>      -0.00008468      -0.00022371       0.00012514 </v>
   <v>       0.00228761      -0.00063429      -0.00134783 </v>
   <v>      -0.00005907       0.00045518      -0.00015366 </v>
   <v>       0.00001589      -0.00000973       0.00062685 </v>
   <v>       0.00007284      -0.00003514       0.00062032 </v>
   <v>      -0.00011621      -0.00002334       0.00067317 </v>
   <v>       0.00001073       0.00015031       0.00079611 </v>
   <v>      -0.00007107       0.00005373       0.00067063 </v>
   <v>       0.00009660      -0.00010238       0.00069759 </v>
   <v>       0.00002238       0.00003113       0.00062629 </v>
   <v>      -0.00021795       0.00046258      -0.00022610 </v>
   <v>       0.00019009      -0.00009115       0.00069351 </v>
   <v>       0.00002884       0.00000251       0.00069721 </v>
   <v>      -0.00003022       0.00005983       0.00076543 </v>
   <v>      -0.00042229      -0.00060529       0.00018260 </v>
   <v>      -0.00846137       0.03168826      -0.04131780 </v>
   <v>      -0.00086160       0.00181612      -0.00227513 </v>
   <v>       0.00011943      -0.00012100       0.00063556 </v>
   <v>      -0.00002252      -0.00005408       0.00083295 </v>
   <v>       0.00022427      -0.00119299      -0.00040902 </v>
   <v>      -0.00000190       0.00000356      -0.00062419 </v>
   <v>       0.00000051      -0.00001437      -0.00070429 </v>
   <v>      -0.00000179      -0.00000475      -0.00069496 </v>
   <v>       0.00000350      -0.00000684      -0.00068625 </v>
   <v>      -0.00000459      -0.00000817      -0.00071342 </v>
   <v>       0.00001746       0.00000042      -0.00071093 </v>
   <v>      -0.00000588       0.00001554      -0.00069226 </v>
   <v>      -0.00000512      -0.00000273      -0.00068322 </v>
   <v>       0.00000894       0.00000020      -0.00068906 </v>
   <v>       0.00001586      -0.00000226      -0.00069471 </v>
   <v>       0.00000965       0.00000572      -0.00069711 </v>
   <v>       0.00000621      -0.00000203      -0.00070339 </v>
   <v>      -0.00000411      -0.00000089      -0.00069059 </v>
   <v>       0.00000629       0.00000604      -0.00068832 </v>
   <v>       0.00000155       0.00000032      -0.00070194 </v>
   <v>       0.00001059       0.00000540      -0.00069462 </v>
   <v>       0.00000025      -0.00000011      -0.00067400 </v>
   <v>      -0.00000656       0.00000144      -0.00068952 </v>
   <v>      -0.00000309       0.00000628      -0.00067938 </v>
   <v>       0.00000590       0.00000804      -0.00068815 </v>
   <v>       0.00000746       0.00001566      -0.00071160 </v>
   <v>       0.00000122       0.00000162      -0.00070124 </v>
   <v>      -0.00000175      -0.00000504      -0.00068735 </v>
   <v>       0.00001139       0.00000190      -0.00069493 </v>
   <v>      -0.00001135      -0.00000840      -0.00070208 </v>
   <v>       0.06067855      -0.00019119       0.13107007 </v>
   <v>      -0.00277963       0.00016872       0.00338829 </v>
   <v>       0.00003033      -0.00004778       0.00067651 </v>
   <v>      -0.00002458      -0.00007711       0.00071313 </v>
   <v>      -0.00407360       0.00044411       0.00417706 </v>
   <v>      -0.00105744       0.00194412       0.00382406 </v>
   <v>       0.00009763      -0.00116766       0.00373832 </v>
   <v>       0.00002455      -0.00000516       0.00043594 </v>
   <v>      -0.00003728      -0.00002252       0.00048024 </v>
   <v>       0.00023130      -0.00011775       0.00038351 </v>
   <v>       0.00002201       0.00005157       0.00073922 </v>
   <v>       0.00004130      -0.00006140       0.00040756 </v>
   <v>      -0.00005393       0.00005208       0.00064994 </v>
   <v>      -0.00004270       0.00000220       0.00048364 </v>
   <v>      -0.00000617       0.00001700       0.00047585 </v>
   <v>       0.00004440      -0.00001420       0.00072034 </v>
   <v>      -0.00002739       0.00000455       0.00049167 </v>
   <v>      -0.00000239      -0.00001116       0.00046676 </v>
   <v>      -0.00008358       0.00003236       0.00066760 </v>
   <v>       0.00003049       0.00012146       0.00040844 </v>
   <v>      -0.00044339       0.00115027       0.00342856 </v>
   <v>       0.00007670      -0.00001564       0.00046802 </v>
   <v>      -0.00002853       0.00001893       0.00047980 </v>
   <v>       0.00017684       0.00008306       0.00034840 </v>
   <v>      -0.00052919      -0.00253451       0.00413153 </v>
   <v>       0.00171184      -0.00000220      -0.01442787 </v>
   <v>      -0.00241243       0.00208163      -0.00067935 </v>
   <v>      -0.00002244       0.00007624       0.00075615 </v>
   <v>      -0.00003361      -0.00012272       0.00072790 </v>
   <v>       0.00078106       0.00062190       0.00122896 </v>
   <v>       0.00026058      -0.00049099       0.00141011 </v>
   <v>       0.00099545      -0.00361467      -0.00085777 </v>
   <v>      -0.00015795      -0.00008331       0.00105716 </v>
   <v>       0.00000397      -0.00002633       0.00075353 </v>
   <v>       0.00001215      -0.00002149       0.00100558 </v>
   <v>       0.00006333       0.00015053       0.00070562 </v>
   <v>      -0.00000217       0.00002423       0.00102606 </v>
   <v>       0.00003113      -0.00012181       0.00077424 </v>
   <v>      -0.00002739       0.00001703       0.00075053 </v>
   <v>       0.00001119       0.00000311       0.00075192 </v>
   <v>       0.00006272      -0.00004303       0.00072034 </v>
   <v>      -0.00000198      -0.00000538       0.00072766 </v>
   <v>       0.00001309       0.00000428       0.00075853 </v>
   <v>       0.00002000       0.00006224       0.00076069 </v>
   <v>      -0.00001929       0.00010112       0.00102943 </v>
   <v>      -0.00134454       0.00081620       0.00045094 </v>
   <v>      -0.00004923       0.00003127       0.00094886 </v>
   <v>       0.00001389       0.00001278       0.00074287 </v>
   <v>      -0.00009424      -0.00004907       0.00110811 </v>
   <v>       0.00259776       0.00060737       0.00009152 </v>
   <v>      -0.00000820       0.00000293      -0.00077328 </v>
   <v>       0.00000864       0.00000502      -0.00076744 </v>
   <v>       0.00001838       0.00000574      -0.00075690 </v>
   <v>       0.00000472      -0.00001445      -0.00075546 </v>
   <v>       0.00000445       0.00000686      -0.00075312 </v>
   <v>      -0.00000227      -0.00000365      -0.00076118 </v>
   <v>       0.00000352       0.00000148      -0.00072804 </v>
   <v>       0.00001811       0.00001271      -0.00075203 </v>
   <v>      -0.00000690      -0.00000458      -0.00076416 </v>
   <v>       0.00000883       0.00000175      -0.00075141 </v>
   <v>       0.00000832       0.00000533      -0.00075202 </v>
   <v>      -0.00001320       0.00000740      -0.00076774 </v>
   <v>      -0.00000086       0.00000863      -0.00075223 </v>
   <v>      -0.00000992       0.00001177      -0.00075792 </v>
   <v>       0.00000642       0.00001241      -0.00075487 </v>
   <v>      -0.00000086      -0.00001173      -0.00076320 </v>
   <v>       0.00000229      -0.00001424      -0.00075886 </v>
   <v>      -0.00000281      -0.00000105      -0.00075925 </v>
   <v>      -0.00000263      -0.00000499      -0.00076586 </v>
   <v>       0.00000693      -0.00001441      -0.00075038 </v>
   <v>      -0.00000158      -0.00001383      -0.00077051 </v>
   <v>       0.00000587      -0.00000474      -0.00069297 </v>
   <v>       0.00000960      -0.00000521      -0.00074971 </v>
   <v>      -0.00000771       0.00000262      -0.00077212 </v>
   <v>       0.00000627      -0.00000184      -0.00075973 </v>
   <v>      -0.00000339       0.00000011      -0.00043404 </v>
   <v>      -0.00000852      -0.00000762      -0.00043539 </v>
   <v>      -0.00000734      -0.00001305      -0.00042779 </v>
   <v>       0.00000337      -0.00001245      -0.00042773 </v>
   <v>       0.00000462      -0.00000683      -0.00042697 </v>
   <v>       0.00000556       0.00000199      -0.00042760 </v>
   <v>      -0.00000513       0.00000239      -0.00042391 </v>
   <v>      -0.00001536       0.00000126      -0.00042914 </v>
   <v>      -0.00000080      -0.00000009      -0.00043133 </v>
   <v>       0.00000904       0.00000088      -0.00042871 </v>
   <v>       0.00000801       0.00000579      -0.00042294 </v>
   <v>      -0.00000069       0.00000287      -0.00042045 </v>
   <v>      -0.00000977       0.00000435      -0.00042162 </v>
   <v>      -0.00000883       0.00001016      -0.00042824 </v>
   <v>       0.00000497       0.00000881      -0.00042786 </v>
   <v>       0.00000368       0.00000565      -0.00042675 </v>
   <v>       0.00000199      -0.00000163      -0.00042042 </v>
   <v>      -0.00000293      -0.00000207      -0.00042540 </v>
   <v>      -0.00000466       0.00000613      -0.00042486 </v>
   <v>      -0.00000394       0.00000898      -0.00042735 </v>
   <v>       0.00000069      -0.00000052      -0.00043302 </v>
   <v>       0.00000009      -0.00000748      -0.00042224 </v>
   <v>      -0.00000134      -0.00001036      -0.00042141 </v>
   <v>       0.00000276      -0.00000678      -0.00042469 </v>
   <v>       0.00000192      -0.00000040      -0.00041995 </v>
  </varray>
  <varray name="stress" >
   <v>      -0.36801970      -0.00536907      -0.02255447 </v>
   <v>      -0.00536908      -0.36801504       0.00009658 </v>
   <v>      -0.02255444       0.00009660      -0.42034318 </v>
  </varray>
  <energy>
   <i name="e_fr_energy">  -1214.42626745 </i>
   <i name="e_wo_entrp">  -1214.42626745 </i>
   <i name="e_0_energy">      0.00000000 </i>
  </energy>
  <time name="totalsc">********60073.50</time>
  <eigenvalues>
   <array>
    <dimension dim="1">band</dimension>
    <dimension dim="2">kpoint</dimension>
    <dimension dim="3">spin</dimension>
    <field>eigene</field>
    <field>occ</field>
    <set>
     <set comment="spin 1">
      <set comment="kpoint 1">
       <r>  -35.2371    1.0000 </r>
       <r>  -35.2371    1.0000 </r>
       <r>  -35.2370    1.0000 </r>
       <r>  -35.2370    1.0000 </r>
       <r>  -35.2370    1.0000 </r>
       <r>  -35.2370    1.0000 </r>
       <r>  -35.2370    1.0000 </r>
       <r>  -35.2370    1.0000 </r>
       <r>  -35.2369    1.0000 </r>
       <r>  -35.2369    1.0000 </r>
       <r>  -35.2369    1.0000 </r>
       <r>  -35.2365    1.0000 </r>
       <r>  -35.2270    1.0000 </r>
       <r>  -35.2269    1.0000 </r>
       <r>  -35.2269    1.0000 </r>
       <r>  -35.2269    1.0000 </r>
       <r>  -35.2269    1.0000 </r>
       <r>  -35.2269    1.0000 </r>
       <r>  -35.2269    1.0000 </r>
       <r>  -35.2269    1.0000 </r>
       <r>  -35.2269    1.0000 </r>
       <r>  -35.2268    1.0000 </r>
       <r>  -35.2268    1.0000 </r>
       <r>  -35.2263    1.0000 </r>
       <r>  -35.1504    1.0000 </r>
       <r>  -35.1503    1.0000 </r>
       <r>  -35.1502    1.0000 </r>
       <r>  -35.1502    1.0000 </r>
       <r>  -35.1502    1.0000 </r>
       <r>  -35.1502    1.0000 </r>
       <r>  -35.1502    1.0000 </r>
       <r>  -35.1502    1.0000 </r>
       <r>  -35.1502    1.0000 </r>
       <r>  -35.1501    1.0000 </r>
       <r>  -35.1501    1.0000 </r>
       <r>  -35.1498    1.0000 </r>
       <r>  -35.1083    1.0000 </r>
       <r>  -35.1082    1.0000 </r>
       <r>  -35.0768    1.0000 </r>
       <r>  -35.0765    1.0000 </r>
       <r>  -35.0765    1.0000 </r>
       <r>  -35.0765    1.0000 </r>
       <r>  -35.0765    1.0000 </r>
       <r>  -35.0765    1.0000 </r>
       <r>  -35.0765    1.0000 </r>
       <r>  -35.0765    1.0000 </r>
       <r>  -35.0764    1.0000 </r>
       <r>  -35.0764    1.0000 </r>
       <r>  -35.0764    1.0000 </r>
       <r>  -35.0764    1.0000 </r>
       <r>  -35.0349    1.0000 </r>
       <r>  -35.0348    1.0000 </r>
       <r>  -35.0347    1.0000 </r>
       <r>  -35.0347    1.0000 </r>
       <r>  -35.0347    1.0000 </r>
       <r>  -35.0347    1.0000 </r>
       <r>  -35.0347    1.0000 </r>
       <r>  -35.0346    1.0000 </r>
       <r>  -35.0346    1.0000 </r>
       <r>  -35.0346    1.0000 </r>
       <r>  -35.0346    1.0000 </r>
       <r>  -35.0345    1.0000 </r>
       <r>  -35.0299    1.0000 </r>
       <r>  -35.0296    1.0000 </r>
       <r>  -35.0296    1.0000 </r>
       <r>  -35.0296    1.0000 </r>
       <r>  -35.0296    1.0000 </r>
       <r>  -35.0296    1.0000 </r>
       <r>  -35.0296    1.0000 </r>
       <r>  -35.0296    1.0000 </r>
       <r>  -35.0295    1.0000 </r>
       <r>  -35.0295    1.0000 </r>
       <r>  -35.0295    1.0000 </r>
       <r>  -35.0294    1.0000 </r>
       <r>  -35.0250    1.0000 </r>
       <r>  -35.0248    1.0000 </r>
       <r>  -35.0247    1.0000 </r>
       <r>  -35.0247    1.0000 </r>
       <r>  -35.0247    1.0000 </r>
       <r>  -35.0247    1.0000 </r>
       <r>  -35.0247    1.0000 </r>
       <r>  -35.0247    1.0000 </r>
       <r>  -35.0247    1.0000 </r>
       <r>  -35.0247    1.0000 </r>
       <r>  -35.0246    1.0000 </r>
       <r>  -35.0246    1.0000 </r>
       <r>  -35.0090    1.0000 </r>
       <r>  -35.0088    1.0000 </r>
       <r>  -35.0087    1.0000 </r>
       <r>  -35.0087    1.0000 </r>
       <r>  -35.0087    1.0000 </r>
       <r>  -35.0087    1.0000 </r>
       <r>  -35.0087    1.0000 </r>
       <r>  -35.0087    1.0000 </r>
       <r>  -35.0087    1.0000 </r>
       <r>  -35.0087    1.0000 </r>
       <r>  -35.0086    1.0000 </r>
       <r>  -35.0086    1.0000 </r>
       <r>  -34.9882    1.0000 </r>
       <r>  -34.9881    1.0000 </r>
       <r>  -34.9880    1.0000 </r>
       <r>  -34.9880    1.0000 </r>
       <r>  -34.9880    1.0000 </r>
       <r>  -34.9880    1.0000 </r>
       <r>  -34.9880    1.0000 </r>
       <r>  -34.9880    1.0000 </r>
       <r>  -34.9879    1.0000 </r>
       <r>  -34.9879    1.0000 </r>
       <r>  -34.9878    1.0000 </r>
       <r>  -34.9877    1.0000 </r>
       <r>  -34.9536    1.0000 </r>
       <r>  -34.9534    1.0000 </r>
       <r>  -34.9533    1.0000 </r>
       <r>  -34.9533    1.0000 </r>
       <r>  -34.9533    1.0000 </r>
       <r>  -34.9533    1.0000 </r>
       <r>  -34.9533    1.0000 </r>
       <r>  -34.9533    1.0000 </r>
       <r>  -34.9533    1.0000 </r>
       <r>  -34.9532    1.0000 </r>
       <r>  -34.9531    1.0000 </r>
       <r>  -34.9531    1.0000 </r>
       <r>  -34.9230    1.0000 </r>
       <r>  -34.9227    1.0000 </r>
       <r>  -34.9227    1.0000 </r>
       <r>  -34.9227    1.0000 </r>
       <r>  -34.9227    1.0000 </r>
       <r>  -34.9227    1.0000 </r>
       <r>  -34.9227    1.0000 </r>
       <r>  -34.9227    1.0000 </r>
       <r>  -34.9227    1.0000 </r>
       <r>  -34.9226    1.0000 </r>
       <r>  -34.9225    1.0000 </r>
       <r>  -34.9225    1.0000 </r>
       <r>  -34.8649    1.0000 </r>
       <r>  -34.8649    1.0000 </r>
       <r>  -34.8649    1.0000 </r>
       <r>  -34.8648    1.0000 </r>
       <r>  -34.8648    1.0000 </r>
       <r>  -34.8648    1.0000 </r>
       <r>  -34.8648    1.0000 </r>
       <r>  -34.8648    1.0000 </r>
       <r>  -34.8648    1.0000 </r>
       <r>  -34.8648    1.0000 </r>
       <r>  -34.8647    1.0000 </r>
       <r>  -34.8647    1.0000 </r>
       <r>  -34.8287    1.0000 </r>
       <r>  -34.8287    1.0000 </r>
       <r>  -34.8287    1.0000 </r>
       <r>  -34.8287    1.0000 </r>
       <r>  -14.6093    1.0000 </r>
       <r>  -14.4289    1.0000 </r>
       <r>  -14.0001    1.0000 </r>
       <r>  -14.0001    1.0000 </r>
       <r>  -14.0000    1.0000 </r>
       <r>  -14.0000    1.0000 </r>
       <r>  -14.0000    1.0000 </r>
       <r>  -13.9987    1.0000 </r>
       <r>  -13.8261    1.0000 </r>
       <r>  -13.8260    1.0000 </r>
       <r>  -13.8260    1.0000 </r>
       <r>  -13.8260    1.0000 </r>
       <r>  -13.8260    1.0000 </r>
       <r>  -13.8242    1.0000 </r>
       <r>  -13.2630    1.0000 </r>
       <r>  -13.0470    1.0000 </r>
       <r>  -13.0470    1.0000 </r>
       <r>  -13.0470    1.0000 </r>
       <r>  -13.0470    1.0000 </r>
       <r>  -13.0469    1.0000 </r>
       <r>  -13.0458    1.0000 </r>
       <r>  -12.9911    1.0000 </r>
       <r>  -12.9909    1.0000 </r>
       <r>  -12.9908    1.0000 </r>
       <r>  -12.9908    1.0000 </r>
       <r>  -12.9908    1.0000 </r>
       <r>  -12.9902    1.0000 </r>
       <r>  -12.9807    1.0000 </r>
       <r>  -12.9045    1.0000 </r>
       <r>  -12.9044    1.0000 </r>
       <r>  -12.9044    1.0000 </r>
       <r>  -12.9043    1.0000 </r>
       <r>  -12.9043    1.0000 </r>
       <r>  -12.9025    1.0000 </r>
       <r>  -12.7608    1.0000 </r>
       <r>  -12.7608    1.0000 </r>
       <r>  -12.7608    1.0000 </r>
       <r>  -12.7608    1.0000 </r>
       <r>  -12.7607    1.0000 </r>
       <r>  -12.7598    1.0000 </r>
       <r>  -12.7581    1.0000 </r>
       <r>  -12.7579    1.0000 </r>
       <r>  -12.7579    1.0000 </r>
       <r>  -12.7579    1.0000 </r>
       <r>  -12.7579    1.0000 </r>
       <r>  -12.7575    1.0000 </r>
       <r>  -12.6422    1.0000 </r>
       <r>  -12.6421    1.0000 </r>
       <r>  -12.6420    1.0000 </r>
       <r>  -12.6420    1.0000 </r>
       <r>  -12.6420    1.0000 </r>
       <r>  -12.6402    1.0000 </r>
       <r>  -12.5597    1.0000 </r>
       <r>  -12.5596    1.0000 </r>
       <r>  -12.5596    1.0000 </r>
       <r>  -12.5595    1.0000 </r>
       <r>  -12.5595    1.0000 </r>
       <r>  -12.5584    1.0000 </r>
       <r>  -12.4482    1.0000 </r>
       <r>  -12.4482    1.0000 </r>
       <r>  -12.4481    1.0000 </r>
       <r>  -12.4481    1.0000 </r>
       <r>  -12.4480    1.0000 </r>
       <r>  -12.4467    1.0000 </r>
       <r>  -12.4161    1.0000 </r>
       <r>  -12.4160    1.0000 </r>
       <r>  -12.4160    1.0000 </r>
       <r>  -12.4160    1.0000 </r>
       <r>  -12.4160    1.0000 </r>
       <r>  -12.4154    1.0000 </r>
       <r>  -12.3486    1.0000 </r>
       <r>  -12.3486    1.0000 </r>
       <r>  -12.3485    1.0000 </r>
       <r>  -12.3485    1.0000 </r>
       <r>  -12.3485    1.0000 </r>
       <r>  -12.3479    1.0000 </r>
       <r>  -12.2927    1.0000 </r>
       <r>  -12.2927    1.0000 </r>
       <r>  -12.2926    1.0000 </r>
       <r>  -12.2926    1.0000 </r>
       <r>  -12.2926    1.0000 </r>
       <r>  -12.2921    1.0000 </r>
       <r>  -12.2271    1.0000 </r>
       <r>  -12.2270    1.0000 </r>
       <r>  -12.2270    1.0000 </r>
       <r>  -12.2270    1.0000 </r>
       <r>  -12.2269    1.0000 </r>
       <r>  -12.2251    1.0000 </r>
       <r>  -12.2023    1.0000 </r>
       <r>  -12.2022    1.0000 </r>
       <r>  -12.2022    1.0000 </r>
       <r>  -12.2021    1.0000 </r>
       <r>  -12.2021    1.0000 </r>
       <r>  -12.1999    1.0000 </r>
       <r>  -12.1772    1.0000 </r>
       <r>  -12.1772    1.0000 </r>
       <r>  -12.1772    1.0000 </r>
       <r>  -12.1772    1.0000 </r>
       <r>  -12.1771    1.0000 </r>
       <r>  -12.1764    1.0000 </r>
       <r>   -6.4326    1.0000 </r>
       <r>   -6.1416    1.0000 </r>
       <r>   -6.1415    1.0000 </r>
       <r>   -6.1415    1.0000 </r>
       <r>   -6.1411    1.0000 </r>
       <r>   -6.1409    1.0000 </r>
       <r>   -6.1407    1.0000 </r>
       <r>   -5.9351    1.0000 </r>
       <r>   -5.9350    1.0000 </r>
       <r>   -5.9350    1.0000 </r>
       <r>   -5.9347    1.0000 </r>
       <r>   -5.9344    1.0000 </r>
       <r>   -5.9342    1.0000 </r>
       <r>   -5.8599    1.0000 </r>
       <r>   -5.8599    1.0000 </r>
       <r>   -5.8598    1.0000 </r>
       <r>   -5.8598    1.0000 </r>
       <r>   -5.8598    1.0000 </r>
       <r>   -5.8584    1.0000 </r>
       <r>   -5.8113    1.0000 </r>
       <r>   -5.8112    1.0000 </r>
       <r>   -5.8112    1.0000 </r>
       <r>   -5.8112    1.0000 </r>
       <r>   -5.8111    1.0000 </r>
       <r>   -5.8108    1.0000 </r>
       <r>   -5.8104    1.0000 </r>
       <r>   -5.6753    1.0000 </r>
       <r>   -5.6751    1.0000 </r>
       <r>   -5.6751    1.0000 </r>
       <r>   -5.6750    1.0000 </r>
       <r>   -5.6745    1.0000 </r>
       <r>   -5.6736    1.0000 </r>
       <r>   -5.6554    1.0000 </r>
       <r>   -5.6553    1.0000 </r>
       <r>   -5.6553    1.0000 </r>
       <r>   -5.6552    1.0000 </r>
       <r>   -5.6548    1.0000 </r>
       <r>   -5.6539    1.0000 </r>
       <r>   -5.6529    1.0000 </r>
       <r>   -5.6528    1.0000 </r>
       <r>   -5.6528    1.0000 </r>
       <r>   -5.6525    1.0000 </r>
       <r>   -5.6521    1.0000 </r>
       <r>   -5.6514    1.0000 </r>
       <r>   -5.6219    1.0000 </r>
       <r>   -5.6218    1.0000 </r>
       <r>   -5.6218    1.0000 </r>
       <r>   -5.6218    1.0000 </r>
       <r>   -5.6218    1.0000 </r>
       <r>   -5.6213    1.0000 </r>
       <r>   -5.4060    1.0000 </r>
       <r>   -5.4060    1.0000 </r>
       <r>   -5.4060    1.0000 </r>
       <r>   -5.4055    1.0000 </r>
       <r>   -5.4054    1.0000 </r>
       <r>   -5.4047    1.0000 </r>
       <r>   -5.2867    1.0000 </r>
       <r>   -5.2866    1.0000 </r>
       <r>   -5.2866    1.0000 </r>
       <r>   -5.2866    1.0000 </r>
       <r>   -5.2865    1.0000 </r>
       <r>   -5.2844    1.0000 </r>
       <r>   -5.1815    1.0000 </r>
       <r>   -5.1815    1.0000 </r>
       <r>   -5.1815    1.0000 </r>
       <r>   -5.1815    1.0000 </r>
       <r>   -5.1812    1.0000 </r>
       <r>   -5.1811    1.0000 </r>
       <r>   -4.9666    1.0000 </r>
       <r>   -4.9664    1.0000 </r>
       <r>   -4.9663    1.0000 </r>
       <r>   -4.9662    1.0000 </r>
       <r>   -4.9659    1.0000 </r>
       <r>   -4.9658    1.0000 </r>
       <r>   -4.6881    1.0000 </r>
       <r>   -4.6880    1.0000 </r>
       <r>   -4.6880    1.0000 </r>
       <r>   -4.6878    1.0000 </r>
       <r>   -4.6872    1.0000 </r>
       <r>   -4.6869    1.0000 </r>
       <r>   -4.5923    1.0000 </r>
       <r>   -4.5922    1.0000 </r>
       <r>   -4.5921    1.0000 </r>
       <r>   -4.5920    1.0000 </r>
       <r>   -4.5915    1.0000 </r>
       <r>   -4.5914    1.0000 </r>
       <r>   -4.4853    1.0000 </r>
       <r>   -4.4853    1.0000 </r>
       <r>   -4.4853    1.0000 </r>
       <r>   -4.4852    1.0000 </r>
       <r>   -4.4851    1.0000 </r>
       <r>   -4.4846    1.0000 </r>
       <r>   -4.4831    1.0000 </r>
       <r>   -4.4827    1.0000 </r>
       <r>   -4.4826    1.0000 </r>
       <r>   -4.4825    1.0000 </r>
       <r>   -4.4824    1.0000 </r>
       <r>   -4.4815    1.0000 </r>
       <r>   -4.2152    1.0000 </r>
       <r>   -4.2152    1.0000 </r>
       <r>   -4.2152    1.0000 </r>
       <r>   -4.2151    1.0000 </r>
       <r>   -4.2148    1.0000 </r>
       <r>   -4.2145    1.0000 </r>
       <r>   -4.1700    1.0000 </r>
       <r>   -4.1696    1.0000 </r>
       <r>   -4.1696    1.0000 </r>
       <r>   -4.1693    1.0000 </r>
       <r>   -4.1692    1.0000 </r>
       <r>   -4.1684    1.0000 </r>
       <r>   -4.1142    1.0000 </r>
       <r>   -4.1141    1.0000 </r>
       <r>   -4.1140    1.0000 </r>
       <r>   -4.1139    1.0000 </r>
       <r>   -4.1139    1.0000 </r>
       <r>   -4.1129    1.0000 </r>
       <r>   -3.9834    1.0000 </r>
       <r>   -3.9831    1.0000 </r>
       <r>   -3.9831    1.0000 </r>
       <r>   -3.9831    1.0000 </r>
       <r>   -3.9829    1.0000 </r>
       <r>   -3.9827    1.0000 </r>
       <r>   -3.9751    1.0000 </r>
       <r>   -3.9750    1.0000 </r>
       <r>   -3.9750    1.0000 </r>
       <r>   -3.9747    1.0000 </r>
       <r>   -3.9740    1.0000 </r>
       <r>   -3.9739    1.0000 </r>
       <r>   -3.8779    1.0000 </r>
       <r>   -3.8776    1.0000 </r>
       <r>   -3.8776    1.0000 </r>
       <r>   -3.8774    1.0000 </r>
       <r>   -3.8766    1.0000 </r>
       <r>   -3.8761    1.0000 </r>
       <r>   -3.8000    1.0000 </r>
       <r>   -3.7996    1.0000 </r>
       <r>   -3.7995    1.0000 </r>
       <r>   -3.7994    1.0000 </r>
       <r>   -3.7993    1.0000 </r>
       <r>   -3.7991    1.0000 </r>
       <r>   -3.7559    1.0000 </r>
       <r>   -3.7556    1.0000 </r>
       <r>   -3.7554    1.0000 </r>
       <r>   -3.7553    1.0000 </r>
       <r>   -3.7552    1.0000 </r>
       <r>   -3.7551    1.0000 </r>
       <r>   -3.5942    1.0000 </r>
       <r>   -3.5935    1.0000 </r>
       <r>   -3.5935    1.0000 </r>
       <r>   -3.5933    1.0000 </r>
       <r>   -3.5931    1.0000 </r>
       <r>   -3.5925    1.0000 </r>
       <r>   -3.4211    1.0000 </r>
       <r>   -3.4208    1.0000 </r>
       <r>   -3.4208    1.0000 </r>
       <r>   -3.4207    1.0000 </r>
       <r>   -3.4203    1.0000 </r>
       <r>   -3.4199    1.0000 </r>
       <r>   -3.3921    1.0000 </r>
       <r>   -3.3920    1.0000 </r>
       <r>   -3.3920    1.0000 </r>
       <r>   -3.3919    1.0000 </r>
       <r>   -3.3912    1.0000 </r>
       <r>   -3.3908    1.0000 </r>
       <r>   -3.3889    1.0000 </r>
       <r>   -3.3889    1.0000 </r>
       <r>   -3.3888    1.0000 </r>
       <r>   -3.3887    1.0000 </r>
       <r>   -3.3887    1.0000 </r>
       <r>   -3.3884    1.0000 </r>
       <r>   -3.3428    1.0000 </r>
       <r>   -3.3427    1.0000 </r>
       <r>   -3.3427    1.0000 </r>
       <r>   -3.3426    1.0000 </r>
       <r>   -3.3419    1.0000 </r>
       <r>   -3.3414    1.0000 </r>
       <r>   -3.3335    1.0000 </r>
       <r>   -3.3335    1.0000 </r>
       <r>   -3.3335    1.0000 </r>
       <r>   -3.3334    1.0000 </r>
       <r>   -3.3330    1.0000 </r>
       <r>   -3.3323    1.0000 </r>
       <r>   -3.0589    1.0000 </r>
       <r>   -3.0586    1.0000 </r>
       <r>   -3.0585    1.0000 </r>
       <r>   -3.0584    1.0000 </r>
       <r>   -3.0579    1.0000 </r>
       <r>   -3.0578    1.0000 </r>
       <r>   -2.9198    1.0000 </r>
       <r>   -2.9197    1.0000 </r>
       <r>   -2.9197    1.0000 </r>
       <r>   -2.9196    1.0000 </r>
       <r>   -2.9193    1.0000 </r>
       <r>   -2.9190    1.0000 </r>
       <r>   -2.9055    1.0000 </r>
       <r>   -2.9054    1.0000 </r>
       <r>   -2.8978    1.0000 </r>
       <r>   -2.8976    1.0000 </r>
       <r>   -2.7569    1.0000 </r>
       <r>   -2.5636    1.0000 </r>
       <r>   -2.5631    1.0000 </r>
       <r>   -2.5631    1.0000 </r>
       <r>   -2.5630    1.0000 </r>
       <r>   -2.5625    1.0000 </r>
       <r>   -2.5625    1.0000 </r>
       <r>   -2.5614    1.0000 </r>
       <r>   -2.5611    1.0000 </r>
       <r>   -2.5611    1.0000 </r>
       <r>   -2.5609    1.0000 </r>
       <r>   -2.5606    1.0000 </r>
       <r>   -2.5599    1.0000 </r>
       <r>   -2.5186    1.0000 </r>
       <r>   -2.5185    1.0000 </r>
       <r>   -2.5185    1.0000 </r>
       <r>   -2.5184    1.0000 </r>
       <r>   -2.5180    1.0000 </r>
       <r>   -2.5171    1.0000 </r>
       <r>   -2.4778    1.0000 </r>
       <r>   -2.4778    1.0000 </r>
       <r>   -2.4778    1.0000 </r>
       <r>   -2.4777    1.0000 </r>
       <r>   -2.4770    1.0000 </r>
       <r>   -2.4759    1.0000 </r>
       <r>   -2.3813    1.0000 </r>
       <r>   -2.3804    1.0000 </r>
       <r>   -2.3803    1.0000 </r>
       <r>   -2.3803    1.0000 </r>
       <r>   -2.3802    1.0000 </r>
       <r>   -2.3802    1.0000 </r>
       <r>   -2.2930    1.0000 </r>
[...]
       <r>   -23.0187     0.0000   300.0000 </r>
       <r>   -22.8784     0.0000   300.0000 </r>
       <r>   -22.7380     0.0000   300.0000 </r>
       <r>   -22.5977     0.0000   300.0000 </r>
       <r>   -22.4574     0.0000   300.0000 </r>
       <r>   -22.3170     0.0000   300.0000 </r>
       <r>   -22.1767     0.0000   300.0000 </r>
       <r>   -22.0364     0.0000   300.0000 </r>
       <r>   -21.8961     0.0000   300.0000 </r>
       <r>   -21.7557     0.0000   300.0000 </r>
       <r>   -21.6154     0.0000   300.0000 </r>
       <r>   -21.4751     0.0000   300.0000 </r>
       <r>   -21.3347     0.0000   300.0000 </r>
       <r>   -21.1944     0.0000   300.0000 </r>
       <r>   -21.0541     0.0000   300.0000 </r>
       <r>   -20.9137     0.0000   300.0000 </r>
       <r>   -20.7734     0.0000   300.0000 </r>
       <r>   -20.6331     0.0000   300.0000 </r>
       <r>   -20.4928     0.0000   300.0000 </r>
       <r>   -20.3524     0.0000   300.0000 </r>
       <r>   -20.2121     0.0000   300.0000 </r>
       <r>   -20.0718     0.0000   300.0000 </r>
       <r>   -19.9314     0.0000   300.0000 </r>
       <r>   -19.7911     0.0000   300.0000 </r>
       <r>   -19.6508     0.0000   300.0000 </r>
       <r>   -19.5104     0.0000   300.0000 </r>
       <r>   -19.3701     0.0000   300.0000 </r>
       <r>   -19.2298     0.0000   300.0000 </r>
       <r>   -19.0894     0.0000   300.0000 </r>
       <r>   -18.9491     0.0000   300.0000 </r>
       <r>   -18.8088     0.0000   300.0000 </r>
       <r>   -18.6685     0.0000   300.0000 </r>
       <r>   -18.5281     0.0000   300.0000 </r>
       <r>   -18.3878     0.0000   300.0000 </r>
       <r>   -18.2475     0.0000   300.0000 </r>
       <r>   -18.1071     0.0000   300.0000 </r>
       <r>   -17.9668     0.0000   300.0000 </r>
       <r>   -17.8265     0.0000   300.0000 </r>
       <r>   -17.6861     0.0000   300.0000 </r>
       <r>   -17.5458     0.0000   300.0000 </r>
       <r>   -17.4055     0.0000   300.0000 </r>
       <r>   -17.2651     0.0000   300.0000 </r>
       <r>   -17.1248     0.0000   300.0000 </r>
       <r>   -16.9845     0.0000   300.0000 </r>
       <r>   -16.8442     0.0000   300.0000 </r>
       <r>   -16.7038     0.0000   300.0000 </r>
       <r>   -16.5635     0.0000   300.0000 </r>
       <r>   -16.4232     0.0000   300.0000 </r>
       <r>   -16.2828     0.0000   300.0000 </r>
       <r>   -16.1425     0.0000   300.0000 </r>
       <r>   -16.0022     0.0000   300.0000 </r>
       <r>   -15.8618     0.0000   300.0000 </r>
       <r>   -15.7215     0.0000   300.0000 </r>
       <r>   -15.5812     0.0000   300.0000 </r>
       <r>   -15.4409     0.0000   300.0000 </r>
       <r>   -15.3005     0.0000   300.0000 </r>
       <r>   -15.1602     0.0000   300.0000 </r>
       <r>   -15.0199     0.0000   300.0000 </r>
       <r>   -14.8795     0.0000   300.0000 </r>
       <r>   -14.7392     0.0000   300.0000 </r>
       <r>   -14.5989     3.3145   300.4651 </r>
       <r>   -14.4585     1.6036   300.7250 </r>
       <r>   -14.3182     0.0000   304.0000 </r>
       <r>   -14.1779     0.0000   307.0000 </r>
       <r>   -14.0375     0.0000   310.0000 </r>
       <r>   -13.8972    21.3781   316.0000 </r>
       <r>   -13.7569    21.3781   319.0000 </r>
       <r>   -13.6166     0.5768   319.0809 </r>
       <r>   -13.4762     0.0000   325.0000 </r>
       <r>   -13.3359    21.3781   334.0000 </r>
       <r>   -13.1956    30.4453   338.2724 </r>
       <r>   -13.0552    12.3307   342.2304 </r>
       <r>   -12.9149    86.5529   358.6460 </r>
       <r>   -12.7746   107.6056   377.1004 </r>
       <r>   -12.6342    39.7537   388.5787 </r>
       <r>   -12.4939   163.9666   418.0095 </r>
       <r>   -12.3536   165.3296   446.7008 </r>
       <r>   -12.2133   153.2168   484.0010 </r>
       <r>   -12.0729    42.7562   500.0000 </r>
       <r>   -11.9326     0.0000   500.0000 </r>
       <r>   -11.7923     0.0000   500.0000 </r>
       <r>   -11.6519     0.0000   500.0000 </r>
       <r>   -11.5116     0.0000   500.0000 </r>
       <r>   -11.3713     0.0000   500.0000 </r>
       <r>   -11.2309     0.0000   500.0000 </r>
       <r>   -11.0906     0.0000   500.0000 </r>
       <r>   -10.9503     0.0000   500.0000 </r>
       <r>   -10.8099     0.0000   500.0000 </r>
       <r>   -10.6696     0.0000   500.0000 </r>
       <r>   -10.5293     0.0000   500.0000 </r>
       <r>   -10.3890     0.0000   500.0000 </r>
       <r>   -10.2486     0.0000   500.0000 </r>
       <r>   -10.1083     0.0000   500.0000 </r>
       <r>    -9.9680     0.0000   500.0000 </r>
       <r>    -9.8276     0.0000   500.0000 </r>
       <r>    -9.6873     0.0000   500.0000 </r>
       <r>    -9.5470     0.0000   500.0000 </r>
       <r>    -9.4066     0.0000   500.0000 </r>
       <r>    -9.2663     0.0000   500.0000 </r>
       <r>    -9.1260     0.0000   500.0000 </r>
       <r>    -8.9856     0.0000   500.0000 </r>
       <r>    -8.8453     0.0000   500.0000 </r>
       <r>    -8.7050     0.0000   500.0000 </r>
       <r>    -8.5647     0.0000   500.0000 </r>
       <r>    -8.4243     0.0000   500.0000 </r>
       <r>    -8.2840     0.0000   500.0000 </r>
       <r>    -8.1437     0.0000   500.0000 </r>
       <r>    -8.0033     0.0000   500.0000 </r>
       <r>    -7.8630     0.0000   500.0000 </r>
       <r>    -7.7227     0.0000   500.0000 </r>
       <r>    -7.5823     0.0000   500.0000 </r>
       <r>    -7.4420     0.0000   500.0000 </r>
       <r>    -7.3017     0.0000   500.0000 </r>
       <r>    -7.1614     0.0000   500.0000 </r>
       <r>    -7.0210     0.0000   500.0000 </r>
       <r>    -6.8807     0.0000   500.0000 </r>
       <r>    -6.7404     0.0000   500.0000 </r>
       <r>    -6.6000     0.0000   500.0000 </r>
       <r>    -6.4597     0.0002   500.0000 </r>
       <r>    -6.3194    10.6891   502.0000 </r>
       <r>    -6.1790    26.2635   505.6856 </r>
       <r>    -6.0387     0.0000   515.5000 </r>
       <r>    -5.8984    86.8662   527.6900 </r>
       <r>    -5.7580    88.5927   551.9323 </r>
       <r>    -5.6177   163.2031   577.9024 </r>
       <r>    -5.4774     0.0000   588.0000 </r>
       <r>    -5.3371   201.9822   619.3443 </r>
       <r>    -5.1967    74.8315   639.0011 </r>
       <r>    -5.0564     0.0000   642.0000 </r>
       <r>    -4.9161    32.7945   646.6021 </r>
       <r>    -4.7757     0.2109   651.0296 </r>
       <r>    -4.6354    39.8861   662.5972 </r>
       <r>    -4.4951    45.2639   673.8519 </r>
       <r>    -4.3547     4.1319   680.0798 </r>
       <r>    -4.2144   123.9931   711.9000 </r>
       <r>    -4.0741    64.1343   732.0000 </r>
       <r>    -3.9338   169.0441   761.7220 </r>
       <r>    -3.7934    17.2042   767.4143 </r>
       <r>    -3.6531    21.3781   792.0000 </r>
       <r>    -3.5128   117.3957   810.9742 </r>
       <r>    -3.3724   135.0040   837.9452 </r>
       <r>    -3.2321    72.2883   859.1443 </r>
       <r>    -3.0918    64.4017   873.0375 </r>
       <r>    -2.9514    42.7563   891.0000 </r>
       <r>    -2.8111    42.7562   902.0000 </r>
       <r>    -2.6708    42.7562   908.5000 </r>
       <r>    -2.5304    71.9294   918.5939 </r>
       <r>    -2.3901    87.3623   938.7596 </r>
       <r>    -2.2498   113.9805   957.4949 </r>
       <r>    -2.1095    94.5660   974.2705 </r>
       <r>    -1.9691   152.5690  1010.9101 </r>
       <r>    -1.8288    96.1524  1032.9931 </r>
       <r>    -1.6885    77.6721  1048.3998 </r>
       <r>    -1.5481    37.6476  1059.7831 </r>
       <r>    -1.4078    64.1343  1073.0000 </r>
       <r>    -1.2675    43.6687  1082.1280 </r>
       <r>    -1.1271    58.6596  1102.2317 </r>
       <r>    -0.9868   193.0184  1140.5864 </r>
       <r>    -0.8465    13.6240  1145.4119 </r>
       <r>    -0.7061    79.5375  1171.1615 </r>
       <r>    -0.5658    46.2168  1184.4856 </r>
       <r>    -0.4255    62.9571  1193.3348 </r>
       <r>    -0.2852    21.3781  1196.5000 </r>
       <r>    -0.1448     0.0000  1196.5000 </r>
       <r>    -0.0045     0.0006  1196.5001 </r>
       <r>     0.1358     0.0000  1199.5000 </r>
       <r>     0.2762     3.5630  1200.0000 </r>
       <r>     0.4165     0.0000  1200.0000 </r>
       <r>     0.5568     0.0000  1200.0000 </r>
       <r>     0.6972     0.0000  1200.0000 </r>
       <r>     0.8375     0.0000  1200.0000 </r>
       <r>     0.9778     0.0000  1200.0000 </r>
       <r>     1.1181     0.0000  1200.0000 </r>
       <r>     1.2585     0.0000  1200.0000 </r>
       <r>     1.3988     0.0000  1200.0000 </r>
       <r>     1.5391    32.7517  1204.5961 </r>
       <r>     1.6795    19.8573  1211.7866 </r>
       <r>     1.8198     3.2065  1221.4500 </r>
       <r>     1.9601    66.5401  1242.3376 </r>
       <r>     2.1005   128.9831  1269.1003 </r>
       <r>     2.2408   195.4345  1302.4254 </r>
       <r>     2.3811    82.3013  1325.5494 </r>
       <r>     2.5215   215.9980  1368.3111 </r>
       <r>     2.6618    52.7787  1397.9065 </r>
       <r>     2.8021   175.3757  1423.1106 </r>
       <r>     2.9424    24.9392  1436.9997 </r>
       <r>     3.0828     0.0000  1440.0000 </r>
       <r>     3.2231     0.0000  1440.0000 </r>
       <r>     3.3634     0.0000  1440.0000 </r>
       <r>     3.5038     0.0000  1440.0000 </r>
       <r>     3.6441     0.0000  1440.0000 </r>
       <r>     3.7844     0.0000  1440.0000 </r>
       <r>     3.9248     0.0000  1440.0000 </r>
       <r>     4.0651     0.0000  1440.0000 </r>
       <r>     4.2054     0.0000  1440.0000 </r>
       <r>     4.3457     0.0000  1440.0000 </r>
       <r>     4.4861     0.0000  1440.0000 </r>
       <r>     4.6264     0.0000  1440.0000 </r>
       <r>     4.7667     0.0000  1440.0000 </r>
       <r>     4.9071     0.0000  1440.0000 </r>
      </set>
     </set>
    </array>
   </total>
  </dos>
 </calculation>
 <structure name="finalpos" >
  <crystal>
   <varray name="basis" >
    <v>      15.65451448      -0.00000001       0.00000000 </v>
    <v>      -7.82725475      13.55720592       0.00000000 </v>
    <v>       0.00000000       0.00000000      26.00697779 </v>
   </varray>
   <i name="volume">   5519.49928921 </i>
   <varray name="rec_basis" >
    <v>       0.06387934       0.03688074       0.00000000 </v>
    <v>       0.00000000       0.07376151       0.00000000 </v>
    <v>       0.00000000       0.00000000       0.03845122 </v>
   </varray>
  </crystal>
  <varray name="positions" >
   <v>       0.06666667       0.13333333       0.17304109 </v>
   <v>       0.26666667       0.13333333       0.17304109 </v>
   <v>       0.46666667       0.13333333       0.17304109 </v>
   <v>       0.66666667       0.13333333       0.17304109 </v>
   <v>       0.86666667       0.13333333       0.17304109 </v>
   <v>       0.06666667       0.33333333       0.17304109 </v>
   <v>       0.26666667       0.33333333       0.17304109 </v>
   <v>       0.46666667       0.33333333       0.17304109 </v>
   <v>       0.66666667       0.33333333       0.17304109 </v>
   <v>       0.86666667       0.33333333       0.17304109 </v>
   <v>       0.06666667       0.53333333       0.17304109 </v>
   <v>       0.26666667       0.53333333       0.17304109 </v>
   <v>       0.46666667       0.53333333       0.17304109 </v>
   <v>       0.66666667       0.53333333       0.17304109 </v>
   <v>       0.86666667       0.53333333       0.17304109 </v>
   <v>       0.06666667       0.73333333       0.17304109 </v>
   <v>       0.26666667       0.73333333       0.17304109 </v>
   <v>       0.46666667       0.73333333       0.17304109 </v>
   <v>       0.66666667       0.73333333       0.17304109 </v>
   <v>       0.86666667       0.73333333       0.17304109 </v>
   <v>       0.06666667       0.93333333       0.17304109 </v>
   <v>       0.26666667       0.93333333       0.17304109 </v>
   <v>       0.46666667       0.93333333       0.17304109 </v>
   <v>       0.66666667       0.93333333       0.17304109 </v>
   <v>       0.86666667       0.93333333       0.17304109 </v>
   <v>       0.13333333       0.06666667       0.40532935 </v>
   <v>       0.33333333       0.06666667       0.40532935 </v>
   <v>       0.53333333       0.06666667       0.40532935 </v>
   <v>       0.73333333       0.06666667       0.40532935 </v>
   <v>       0.93333333       0.06666667       0.40532935 </v>
   <v>       0.13333333       0.26666667       0.40532935 </v>
   <v>       0.33333333       0.26666667       0.40532935 </v>
   <v>       0.53333333       0.26666667       0.40532935 </v>
   <v>       0.73333333       0.26666667       0.40532935 </v>
   <v>       0.93333333       0.26666667       0.40532935 </v>
   <v>       0.13333333       0.46666667       0.40532935 </v>
   <v>       0.33333333       0.46666667       0.40532935 </v>
   <v>       0.53333333       0.46666667       0.40532935 </v>
   <v>       0.73333333       0.46666667       0.40532935 </v>
   <v>       0.93333333       0.46666667       0.40532935 </v>
   <v>       0.13333333       0.66666667       0.40532935 </v>
   <v>       0.33333333       0.66666667       0.40532935 </v>
   <v>       0.53333333       0.66666667       0.40532935 </v>
   <v>       0.73333333       0.66666667       0.40532935 </v>
   <v>       0.93333333       0.66666667       0.40532935 </v>
   <v>       0.13333333       0.86666667       0.40532935 </v>
   <v>       0.33333333       0.86666667       0.40532935 </v>
   <v>       0.53333333       0.86666667       0.40532935 </v>
   <v>       0.73333333       0.86666667       0.40532935 </v>
   <v>       0.93333333       0.86666667       0.40532935 </v>
   <v>       0.13300390       0.06666667       0.11285718 </v>
   <v>       0.33333333       0.06666667       0.11318662 </v>
   <v>       0.53333333       0.06666667       0.11318662 </v>
   <v>       0.73333333       0.06666667       0.11318662 </v>
   <v>       0.93333333       0.06666667       0.11318662 </v>
   <v>       0.13333333       0.26666667       0.11318662 </v>
   <v>       0.33333333       0.26666667       0.11318662 </v>
   <v>       0.53333333       0.26666667       0.11318662 </v>
   <v>       0.73333333       0.26666667       0.11318662 </v>
   <v>       0.93333333       0.26666667       0.11318662 </v>
   <v>       0.13333333       0.46666667       0.11318662 </v>
   <v>       0.33333333       0.46666667       0.11318662 </v>
   <v>       0.53333333       0.46666667       0.11318662 </v>
   <v>       0.73333333       0.46666667       0.11318662 </v>
   <v>       0.93333333       0.46666667       0.11318662 </v>
   <v>       0.13333333       0.66666667       0.11318662 </v>
   <v>       0.33333333       0.66666667       0.11318662 </v>
   <v>       0.53333333       0.66666667       0.11318662 </v>
   <v>       0.73333333       0.66666667       0.11318662 </v>
   <v>       0.93333333       0.66666667       0.11318662 </v>
   <v>       0.13333333       0.86666667       0.11318662 </v>
   <v>       0.33333333       0.86666667       0.11318662 </v>
   <v>       0.53333333       0.86666667       0.11318662 </v>
   <v>       0.73333333       0.86666667       0.11318662 </v>
   <v>       0.93333333       0.86666667       0.11318662 </v>
   <v>       0.13333333       0.06666667       0.23301500 </v>
   <v>       0.33333333       0.06666667       0.23301500 </v>
   <v>       0.53333333       0.06666667       0.23301500 </v>
   <v>       0.73333333       0.06666667       0.23301500 </v>
   <v>       0.93333333       0.06666667       0.23301500 </v>
   <v>       0.13333333       0.26666667       0.23301500 </v>
   <v>       0.33333333       0.26666667       0.23301500 </v>
   <v>       0.53333333       0.26666667       0.23301500 </v>
   <v>       0.73333333       0.26666667       0.23301500 </v>
   <v>       0.93333333       0.26666667       0.23301500 </v>
   <v>       0.13333333       0.46666667       0.23301500 </v>
   <v>       0.33333333       0.46666667       0.23301500 </v>
   <v>       0.53333333       0.46666667       0.23301500 </v>
   <v>       0.73333333       0.46666667       0.23301500 </v>
   <v>       0.93333333       0.46666667       0.23301500 </v>
   <v>       0.13333333       0.66666667       0.23301500 </v>
   <v>       0.33333333       0.66666667       0.23301500 </v>
   <v>       0.53333333       0.66666667       0.23301500 </v>
   <v>       0.73333333       0.66666667       0.23301500 </v>
   <v>       0.93333333       0.66666667       0.23301500 </v>
   <v>       0.13333333       0.86666667       0.23301500 </v>
   <v>       0.33333333       0.86666667       0.23301500 </v>
   <v>       0.53333333       0.86666667       0.23301500 </v>
   <v>       0.73333333       0.86666667       0.23301500 </v>
   <v>       0.93333333       0.86666667       0.23301500 </v>
   <v>       0.06666667       0.13333333       0.34535543 </v>
   <v>       0.26666667       0.13333333       0.34535543 </v>
   <v>       0.46666667       0.13333333       0.34535543 </v>
   <v>       0.66666667       0.13333333       0.34535543 </v>
   <v>       0.86666667       0.13333333       0.34535543 </v>
   <v>       0.06666667       0.33333333       0.34535543 </v>
   <v>       0.26666667       0.33333333       0.34535543 </v>
   <v>       0.46666667       0.33333333       0.34535543 </v>
   <v>       0.66666667       0.33333333       0.34535543 </v>
   <v>       0.86666667       0.33333333       0.34535543 </v>
   <v>       0.06666667       0.53333333       0.34535543 </v>
   <v>       0.26666667       0.53333333       0.34535543 </v>
   <v>       0.46666667       0.53333333       0.34535543 </v>
   <v>       0.66666667       0.53333333       0.34535543 </v>
   <v>       0.86666667       0.53333333       0.34535543 </v>
   <v>       0.06666667       0.73333333       0.34535543 </v>
   <v>       0.26666667       0.73333333       0.34535543 </v>
   <v>       0.46666667       0.73333333       0.34535543 </v>
   <v>       0.66666667       0.73333333       0.34535543 </v>
   <v>       0.86666667       0.73333333       0.34535543 </v>
   <v>       0.06666667       0.93333333       0.34535543 </v>
   <v>       0.26666667       0.93333333       0.34535543 </v>
   <v>       0.46666667       0.93333333       0.34535543 </v>
   <v>       0.66666667       0.93333333       0.34535543 </v>
   <v>       0.86666667       0.93333333       0.34535543 </v>
   <v>       0.06666667       0.13333333       0.46518382 </v>
   <v>       0.26666667       0.13333333       0.46518382 </v>
   <v>       0.46666667       0.13333333       0.46518382 </v>
   <v>       0.66666667       0.13333333       0.46518382 </v>
   <v>       0.86666667       0.13333333       0.46518382 </v>
   <v>       0.06666667       0.33333333       0.46518382 </v>
   <v>       0.26666667       0.33333333       0.46518382 </v>
   <v>       0.46666667       0.33333333       0.46518382 </v>
   <v>       0.66666667       0.33333333       0.46518382 </v>
   <v>       0.86666667       0.33333333       0.46518382 </v>
   <v>       0.06666667       0.53333333       0.46518382 </v>
   <v>       0.26666667       0.53333333       0.46518382 </v>
   <v>       0.46666667       0.53333333       0.46518382 </v>
   <v>       0.66666667       0.53333333       0.46518382 </v>
   <v>       0.86666667       0.53333333       0.46518382 </v>
   <v>       0.06666667       0.73333333       0.46518382 </v>
   <v>       0.26666667       0.73333333       0.46518382 </v>
   <v>       0.46666667       0.73333333       0.46518382 </v>
   <v>       0.66666667       0.73333333       0.46518382 </v>
   <v>       0.86666667       0.73333333       0.46518382 </v>
   <v>       0.06666667       0.93333333       0.46518382 </v>
   <v>       0.26666667       0.93333333       0.46518382 </v>
   <v>       0.46666667       0.93333333       0.46518382 </v>
   <v>       0.66666667       0.93333333       0.46518382 </v>
   <v>       0.86666667       0.93333333       0.46518382 </v>
  </varray>
 </structure>
</modeling>
