<?xml version="1.0" encoding="ISO-8859-1"?>
<modeling>
 <generator>
  <i name="program" type="string">vasp </i>
  <i name="version" type="string">5.3.3  </i>
  <i name="subversion" type="string">18Dez12 (build Oct  3 2015 22:05:41) complex                          parallel </i>
  <i name="platform" type="string">BGQ </i>
  <i name="date" type="string">2018 02 12 </i>
  <i name="time" type="string">10:22:57 </i>
 </generator>
 <incar>
  <i type="string" name="SYSTEM"> ZrSiO4_U</i>
  <i type="int" name="ISTART">     1</i>
  <i type="string" name="PREC">accurate</i>
  <i type="string" name="ALGO"> Normal</i>
  <i type="int" name="NSIM">     1</i>
  <i type="logical" name="ADDGRID"> T  </i>
  <i type="int" name="ICHARG">     1</i>
  <i type="int" name="IBRION">    -1</i>
  <i name="EDIFF">      0.00000001</i>
  <i type="int" name="NSW">     0</i>
  <i type="int" name="ISIF">     2</i>
  <i name="ENCUT">    600.00000000</i>
  <i type="logical" name="LREAL"> F  </i>
  <i type="logical" name="LPLANE"> F  </i>
  <i type="int" name="ISMEAR">     0</i>
  <i name="SIGMA">      0.01000000</i>
  <i type="logical" name="LWAVE"> F  </i>
  <i type="logical" name="LCHARG"> F  </i>
 </incar>
 <kpoints>
  <generation param="Gamma">
   <v type="int" name="divisions">       2        2        1 </v>
   <v name="usershift">      0.00000000       0.00000000       0.00000000 </v>
   <v name="genvec1">      0.50000000       0.00000000       0.00000000 </v>
   <v name="genvec2">      0.00000000       0.50000000       0.00000000 </v>
   <v name="genvec3">      0.00000000       0.00000000       1.00000000 </v>
   <v name="shift">      0.00000000       0.00000000       0.00000000 </v>
  </generation>
  <varray name="kpointlist" >
   <v>       0.00000000       0.00000000       0.00000000 </v>
   <v>       0.50000000       0.00000000       0.00000000 </v>
   <v>       0.00000000       0.50000000       0.00000000 </v>
   <v>       0.50000000       0.50000000       0.00000000 </v>
  </varray>
  <varray name="weights" >
   <v>       0.25000000 </v>
   <v>       0.25000000 </v>
   <v>       0.25000000 </v>
   <v>       0.25000000 </v>
  </varray>
 </kpoints>
 <parameters>
  <separator name="general" >
   <i type="string" name="SYSTEM">ZrSiO4_U</i>
   <i type="logical" name="LCOMPAT"> F  </i>
  </separator>
  <separator name="electronic" >
   <i type="string" name="PREC">accura</i>
   <i name="ENMAX">    600.00000000</i>
   <i name="ENAUG">    491.96400000</i>
   <i name="EDIFF">      0.00000001</i>
   <i type="int" name="IALGO">    38</i>
   <i type="int" name="IWAVPR">    10</i>
   <i type="int" name="NBANDS">   720</i>
   <i name="NELECT">   1200.00000000</i>
   <i type="int" name="TURBO">     0</i>
   <i type="int" name="IRESTART">     0</i>
   <i type="int" name="NREBOOT">     0</i>
   <i type="int" name="NMIN">     0</i>
   <i name="EREF">      0.00000000</i>
   <separator name="electronic smearing" >
    <i type="int" name="ISMEAR">     0</i>
    <i name="SIGMA">      0.01000000</i>
    <i name="KSPACING">      0.50000000</i>
    <i type="logical" name="KGAMMA"> T  </i>
   </separator>
   <separator name="electronic projectors" >
    <i type="logical" name="LREAL"> F  </i>
    <v name="ROPT">      0.00000000      0.00000000</v>
    <i type="int" name="LMAXPAW">  -100</i>
    <i type="int" name="LMAXMIX">     2</i>
    <i type="logical" name="NLSPLINE"> F  </i>
   </separator>
   <separator name="electronic startup" >
    <i type="int" name="ISTART">     0</i>
    <i type="int" name="ICHARG">     1</i>
    <i type="int" name="INIWAV">     1</i>
   </separator>
   <separator name="electronic spin" >
    <i type="int" name="ISPIN">     1</i>
    <i type="logical" name="LNONCOLLINEAR"> F  </i>
    <v name="MAGMOM">      1.00000000      1.00000000      1.00000000      1.00000000      1.00000000      1.00000000      1.00000000      1.00000000      1.00000000      1.00000000      1.00000000      1.00000000      1.00000000      1.00000000      1.00000000      1.00000000      1.00000000      1.00000000      1.00000000      1.00000000
      1.00000000      1.00000000      1.00000000      1.00000000      1.00000000      1.00000000      1.00000000      1.00000000      1.00000000      1.00000000      1.00000000      1.00000000      1.00000000      1.00000000      1.00000000      1.00000000      1.00000000      1.00000000      1.00000000      1.00000000
      1.00000000      1.00000000      1.00000000      1.00000000      1.00000000      1.00000000      1.00000000      1.00000000      1.00000000      1.00000000      1.00000000      1.00000000      1.00000000      1.00000000      1.00000000      1.00000000      1.00000000      1.00000000      1.00000000      1.00000000
      1.00000000      1.00000000      1.00000000      1.00000000      1.00000000      1.00000000      1.00000000      1.00000000      1.00000000      1.00000000      1.00000000      1.00000000      1.00000000      1.00000000      1.00000000      1.00000000      1.00000000      1.00000000      1.00000000      1.00000000
      1.00000000      1.00000000      1.00000000      1.00000000      1.00000000      1.00000000      1.00000000      1.00000000      1.00000000      1.00000000      1.00000000      1.00000000      1.00000000      1.00000000      1.00000000      1.00000000      1.00000000      1.00000000      1.00000000      1.00000000
      1.00000000      1.00000000      1.00000000      1.00000000      1.00000000      1.00000000      1.00000000      1.00000000      1.00000000      1.00000000      1.00000000      1.00000000      1.00000000      1.00000000      1.00000000      1.00000000      1.00000000      1.00000000      1.00000000      1.00000000
      1.00000000      1.00000000      1.00000000      1.00000000      1.00000000      1.00000000      1.00000000      1.00000000      1.00000000      1.00000000      1.00000000      1.00000000      1.00000000      1.00000000      1.00000000      1.00000000      1.00000000      1.00000000      1.00000000      1.00000000
      1.00000000      1.00000000      1.00000000      1.00000000      1.00000000      1.00000000      1.00000000      1.00000000      1.00000000      1.00000000</v>
    <i name="NUPDOWN">     -1.00000000</i>
    <i type="logical" name="LSORBIT"> F  </i>
    <v name="SAXIS">      0.00000000      0.00000000      1.00000000</v>
    <i type="logical" name="LSPIRAL"> F  </i>
    <v name="QSPIRAL">      0.00000000      0.00000000      0.00000000</v>
    <i type="logical" name="LZEROZ"> F  </i>
   </separator>
   <separator name="electronic exchange-correlation" >
    <i type="logical" name="LASPH"> F  </i>
    <i type="logical" name="LMETAGGA"> F  </i>
   </separator>
   <separator name="electronic convergence" >
    <i type="int" name="NELM">    60</i>
    <i type="int" name="NELMDL">     0</i>
    <i type="int" name="NELMIN">     2</i>
    <i name="ENINI">    600.00000000</i>
    <separator name="electronic convergence detail" >
     <i type="logical" name="LDIAG"> T  </i>
     <i type="logical" name="LSUBROT"> T  </i>
     <i name="WEIMIN">      0.00000000</i>
     <i name="EBREAK">      0.00000000</i>
     <i name="DEPER">      0.30000000</i>
     <i type="int" name="NRMM">     4</i>
     <i name="TIME">      0.40000000</i>
    </separator>
   </separator>
   <separator name="electronic mixer" >
    <i name="AMIX">      0.40000000</i>
    <i name="BMIX">      1.00000000</i>
    <i name="AMIN">      0.10000000</i>
    <i name="AMIX_MAG">      1.60000000</i>
    <i name="BMIX_MAG">      1.00000000</i>
    <separator name="electronic mixer details" >
     <i type="int" name="IMIX">     4</i>
     <i type="int" name="MAXMIX">   -45</i>
     <i name="WC">    100.00000000</i>
     <i type="int" name="INIMIX">     1</i>
     <i type="int" name="MIXPRE">     1</i>
     <i type="int" name="MREMOVE">     5</i>
    </separator>
   </separator>
   <separator name="electronic dipolcorrection" >
    <i type="logical" name="LDIPOL"> F  </i>
    <i type="logical" name="LMONO"> F  </i>
    <i type="int" name="IDIPOL">     0</i>
    <i name="EPSILON">      1.00000000</i>
    <v name="DIPOL">   -100.00000000   -100.00000000   -100.00000000</v>
    <i name="EFIELD">      0.00000000</i>
   </separator>
  </separator>
  <separator name="grids" >
   <i type="int" name="NGX">   126</i>
   <i type="int" name="NGY">   126</i>
   <i type="int" name="NGZ">   210</i>
   <i type="int" name="NGXF">   252</i>
   <i type="int" name="NGYF">   252</i>
   <i type="int" name="NGZF">   420</i>
   <i type="logical" name="ADDGRID"> T  </i>
  </separator>
  <separator name="ionic" >
   <i type="int" name="NSW">     0</i>
   <i type="int" name="IBRION">    -1</i>
   <i type="int" name="ISIF">     2</i>
   <i name="PSTRESS">      0.00000000</i>
   <i name="EDIFFG">      0.00000010</i>
   <i type="int" name="NFREE">     0</i>
   <i name="POTIM">      0.50000000</i>
   <i name="SMASS">     -3.00000000</i>
   <i name="SCALEE">      1.00000000</i>
  </separator>
  <separator name="ionic md" >
   <i name="TEBEG">      0.00010000</i>
   <i name="TEEND">      0.00010000</i>
   <i type="int" name="NBLOCK">     1</i>
   <i type="int" name="KBLOCK">     1</i>
   <i type="int" name="NPACO">   256</i>
   <i name="APACO">     16.00000000</i>
  </separator>
  <separator name="symmetry" >
   <i type="int" name="ISYM">     2</i>
   <i name="SYMPREC">      0.00001000</i>
  </separator>
  <separator name="dos" >
   <i type="logical" name="LORBIT"> T  </i>
   <v name="RWIGS">     -1.00000000     -1.00000000</v>
   <i type="int" name="NEDOS">   301</i>
   <i name="EMIN">     10.00000000</i>
   <i name="EMAX">    -10.00000000</i>
   <i name="EFERMI">      0.00000000</i>
  </separator>
  <separator name="writing" >
   <i type="int" name="NWRITE">     2</i>
   <i type="logical" name="LWAVE"> F  </i>
   <i type="logical" name="LCHARG"> F  </i>
   <i type="logical" name="LPARD"> F  </i>
   <i type="logical" name="LVTOT"> F  </i>
   <i type="logical" name="LVHAR"> F  </i>
   <i type="logical" name="LELF"> F  </i>
   <i type="logical" name="LOPTICS"> F  </i>
   <v name="STM">      0.00000000      0.00000000      0.00000000      0.00000000      0.00000000      0.00000000      0.00000000</v>
  </separator>
  <separator name="performance" >
   <i type="int" name="NPAR">     8</i>
   <i type="int" name="NSIM">     1</i>
   <i type="int" name="NBLK">    -1</i>
   <i type="logical" name="LPLANE"> F  </i>
   <i type="logical" name="LSCALAPACK"> T  </i>
   <i type="logical" name="LSCAAWARE"> F  </i>
   <i type="logical" name="LSCALU"> F  </i>
   <i type="logical" name="LASYNC"> F  </i>
   <i type="logical" name="LORBITALREAL"> F  </i>
  </separator>
  <separator name="miscellaneous" >
   <i type="int" name="IDIOT">     3</i>
   <i type="logical" name="LMUSIC"> F  </i>
   <v name="POMASS">     95.94000000     32.06600000</v>
   <v name="DARWINR">      0.00000000      0.00000000</v>
   <v name="DARWINV">      1.00000000      1.00000000</v>
   <i type="logical" name="LCORR"> T  </i>
  </separator>
  <i type="logical" name="GGA_COMPAT"> T  </i>
  <i type="logical" name="LBERRY"> F  </i>
  <i type="int" name="ICORELEVEL">     0</i>
  <i type="logical" name="LDAU"> F  </i>
  <i type="int" name="I_CONSTRAINED_M">     0</i>
  <separator name="electronic exchange-correlation" >
   <i type="string" name="GGA">--</i>
   <i type="int" name="VOSKOWN">     0</i>
   <i type="logical" name="LHFCALC"> F  </i>
   <i type="string" name="PRECFOCK"></i>
   <i type="logical" name="LSYMGRAD"> F  </i>
   <i type="logical" name="LHFONE"> F  </i>
   <i type="logical" name="LRHFCALC"> F  </i>
   <i type="logical" name="LTHOMAS"> F  </i>
   <i type="logical" name="LMODELHF"> F  </i>
   <i name="ENCUT4O">     -1.00000000</i>
   <i type="int" name="EXXOEP">     0</i>
   <i type="int" name="FOURORBIT">     0</i>
   <i name="AEXX">      0.00000000</i>
   <i name="HFALPHA">      0.00000000</i>
   <i name="MCALPHA">      0.00000000</i>
   <i name="ALDAX">      1.00000000</i>
   <i name="AGGAX">      1.00000000</i>
   <i name="ALDAC">      1.00000000</i>
   <i name="AGGAC">      1.00000000</i>
   <i type="int" name="NKREDX">     1</i>
   <i type="int" name="NKREDY">     1</i>
   <i type="int" name="NKREDZ">     1</i>
   <i type="logical" name="SHIFTRED"> F  </i>
   <i type="logical" name="ODDONLY"> F  </i>
   <i type="logical" name="EVENONLY"> F  </i>
   <i type="int" name="LMAXFOCK">     0</i>
   <i type="int" name="NMAXFOCKAE">     0</i>
   <i type="logical" name="LFOCKAEDFT"> F  </i>
   <i name="HFSCREEN">      0.00000000</i>
   <i name="HFSCREENC">      0.00000000</i>
   <i type="int" name="NBANDSGWLOW">     0</i>
  </separator>
  <separator name="vdW DFT" >
   <i type="logical" name="LUSE_VDW"> F  </i>
   <i name="Zab_VDW">     -0.84910000</i>
   <i name="PARAM1">      0.12340000</i>
   <i name="PARAM2">      1.00000000</i>
   <i name="PARAM3">      0.00000000</i>
  </separator>
  <separator name="model GW" >
   <i type="int" name="MODEL_GW">     0</i>
   <i name="MODEL_EPS0">     22.07799716</i>
   <i name="MODEL_ALPHA">      1.00000000</i>
  </separator>
  <separator name="linear response parameters" >
   <i type="logical" name="LEPSILON"> F  </i>
   <i type="logical" name="LRPA"> F  </i>
   <i type="logical" name="LNABLA"> F  </i>
   <i type="logical" name="LVEL"> F  </i>
   <i type="int" name="KINTER">     0</i>
   <i name="CSHIFT">      0.10000000</i>
   <i name="OMEGAMAX">     -1.00000000</i>
   <i name="DEG_THRESHOLD">      0.00200000</i>
  </separator>
  <separator name="orbital magnetization" >
   <i type="logical" name="NUCIND"> F  </i>
   <v name="MAGPOS">      0.00000000      0.00000000      0.00000000</v>
   <i type="logical" name="LNICSALL"> T  </i>
   <i type="logical" name="ORBITALMAG"> F  </i>
   <i type="logical" name="LMAGBLOCH"> F  </i>
   <i type="logical" name="LCHIMAG"> F  </i>
   <i type="logical" name="LGAUGE"> T  </i>
   <i type="int" name="MAGATOM">     0</i>
   <v name="MAGDIPOL">      0.00000000      0.00000000      0.00000000</v>
   <v name="AVECCONST">      0.00000000      0.00000000      0.00000000</v>
  </separator>
  <separator name="response functions" >
   <i type="logical" name="LADDER"> F  </i>
   <i type="logical" name="LFXC"> F  </i>
   <i type="logical" name="LHARTREE"> T  </i>
   <i type="int" name="IBSE">     0</i>
   <i type="logical" name="LTCTE"> F  </i>
   <i type="logical" name="LTETE"> F  </i>
   <i type="logical" name="LTRIPLET"> F  </i>
   <i type="logical" name="LFXCEPS"> F  </i>
   <i type="logical" name="L2ORDER"> F  </i>
   <i type="logical" name="LUSEW"> F  </i>
   <i name="ENCUTGW">     -2.00000000</i>
   <i name="ENCUTGWSOFT">     -2.00000000</i>
   <i name="ENCUTLF">     -1.00000000</i>
   <i type="int" name="LMAXMP2">    -1</i>
   <i name="SCISSOR">      0.00000000</i>
   <i type="int" name="NOMEGA">     0</i>
   <i type="int" name="NOMEGAR">     0</i>
   <i type="int" name="NBANDSGW">    -1</i>
   <i type="int" name="NBANDSO">    -1</i>
   <i type="int" name="NBANDSV">    -1</i>
   <i type="int" name="NELM">     1</i>
   <i type="int" name="DIM">     3</i>
   <i type="int" name="ANTIRES">     0</i>
   <i name="OMEGAMAX">    -30.00000000</i>
   <i name="OMEGATL">   -200.00000000</i>
   <i type="int" name="OMEGAGRID">     0</i>
   <i name="CSHIFT">     -0.10000000</i>
   <i type="logical" name="SELFENERGY"> F  </i>
   <i type="logical" name="LSPECTRAL"> F  </i>
   <i type="logical" name="ODDONLYGW"> F  </i>
   <i type="logical" name="EVENONLYGW"> F  </i>
   <i type="int" name="NKREDLFX">     1</i>
   <i type="int" name="NKREDLFY">     1</i>
   <i type="int" name="NKREDLFZ">     1</i>
   <i type="int" name="MAXMEM">  1800</i>
   <i type="int" name="TELESCOPE">     0</i>
  </separator>
 </parameters>
 <atominfo>
  <atoms>     150 </atoms>
  <types>       2 </types>
  <array name="atoms" >
   <dimension dim="1">ion</dimension>
   <field type="string">element</field>
   <field type="int">atomtype</field>
   <set>
    <rc><c>Mo</c><c>   1</c></rc>
    <rc><c>Mo</c><c>   1</c></rc>
    <rc><c>Mo</c><c>   1</c></rc>
    <rc><c>Mo</c><c>   1</c></rc>
    <rc><c>Mo</c><c>   1</c></rc>
    <rc><c>Mo</c><c>   1</c></rc>
    <rc><c>Mo</c><c>   1</c></rc>
    <rc><c>Mo</c><c>   1</c></rc>
    <rc><c>Mo</c><c>   1</c></rc>
    <rc><c>Mo</c><c>   1</c></rc>
    <rc><c>Mo</c><c>   1</c></rc>
    <rc><c>Mo</c><c>   1</c></rc>
    <rc><c>Mo</c><c>   1</c></rc>
    <rc><c>Mo</c><c>   1</c></rc>
    <rc><c>Mo</c><c>   1</c></rc>
    <rc><c>Mo</c><c>   1</c></rc>
    <rc><c>Mo</c><c>   1</c></rc>
    <rc><c>Mo</c><c>   1</c></rc>
    <rc><c>Mo</c><c>   1</c></rc>
    <rc><c>Mo</c><c>   1</c></rc>
    <rc><c>Mo</c><c>   1</c></rc>
    <rc><c>Mo</c><c>   1</c></rc>
    <rc><c>Mo</c><c>   1</c></rc>
    <rc><c>Mo</c><c>   1</c></rc>
    <rc><c>Mo</c><c>   1</c></rc>
    <rc><c>Mo</c><c>   1</c></rc>
    <rc><c>Mo</c><c>   1</c></rc>
    <rc><c>Mo</c><c>   1</c></rc>
    <rc><c>Mo</c><c>   1</c></rc>
    <rc><c>Mo</c><c>   1</c></rc>
    <rc><c>Mo</c><c>   1</c></rc>
    <rc><c>Mo</c><c>   1</c></rc>
    <rc><c>Mo</c><c>   1</c></rc>
    <rc><c>Mo</c><c>   1</c></rc>
    <rc><c>Mo</c><c>   1</c></rc>
    <rc><c>Mo</c><c>   1</c></rc>
    <rc><c>Mo</c><c>   1</c></rc>
    <rc><c>Mo</c><c>   1</c></rc>
    <rc><c>Mo</c><c>   1</c></rc>
    <rc><c>Mo</c><c>   1</c></rc>
    <rc><c>Mo</c><c>   1</c></rc>
    <rc><c>Mo</c><c>   1</c></rc>
    <rc><c>Mo</c><c>   1</c></rc>
    <rc><c>Mo</c><c>   1</c></rc>
    <rc><c>Mo</c><c>   1</c></rc>
    <rc><c>Mo</c><c>   1</c></rc>
    <rc><c>Mo</c><c>   1</c></rc>
    <rc><c>Mo</c><c>   1</c></rc>
    <rc><c>Mo</c><c>   1</c></rc>
    <rc><c>Mo</c><c>   1</c></rc>
    <rc><c>S </c><c>   2</c></rc>
    <rc><c>S </c><c>   2</c></rc>
    <rc><c>S </c><c>   2</c></rc>
    <rc><c>S </c><c>   2</c></rc>
    <rc><c>S </c><c>   2</c></rc>
    <rc><c>S </c><c>   2</c></rc>
    <rc><c>S </c><c>   2</c></rc>
    <rc><c>S </c><c>   2</c></rc>
    <rc><c>S </c><c>   2</c></rc>
    <rc><c>S </c><c>   2</c></rc>
    <rc><c>S </c><c>   2</c></rc>
    <rc><c>S </c><c>   2</c></rc>
    <rc><c>S </c><c>   2</c></rc>
    <rc><c>S </c><c>   2</c></rc>
    <rc><c>S </c><c>   2</c></rc>
    <rc><c>S </c><c>   2</c></rc>
    <rc><c>S </c><c>   2</c></rc>
    <rc><c>S </c><c>   2</c></rc>
    <rc><c>S </c><c>   2</c></rc>
    <rc><c>S </c><c>   2</c></rc>
    <rc><c>S </c><c>   2</c></rc>
    <rc><c>S </c><c>   2</c></rc>
    <rc><c>S </c><c>   2</c></rc>
    <rc><c>S </c><c>   2</c></rc>
    <rc><c>S </c><c>   2</c></rc>
    <rc><c>S </c><c>   2</c></rc>
    <rc><c>S </c><c>   2</c></rc>
    <rc><c>S </c><c>   2</c></rc>
    <rc><c>S </c><c>   2</c></rc>
    <rc><c>S </c><c>   2</c></rc>
    <rc><c>S </c><c>   2</c></rc>
    <rc><c>S </c><c>   2</c></rc>
    <rc><c>S </c><c>   2</c></rc>
    <rc><c>S </c><c>   2</c></rc>
    <rc><c>S </c><c>   2</c></rc>
    <rc><c>S </c><c>   2</c></rc>
    <rc><c>S </c><c>   2</c></rc>
    <rc><c>S </c><c>   2</c></rc>
    <rc><c>S </c><c>   2</c></rc>
    <rc><c>S </c><c>   2</c></rc>
    <rc><c>S </c><c>   2</c></rc>
    <rc><c>S </c><c>   2</c></rc>
    <rc><c>S </c><c>   2</c></rc>
    <rc><c>S </c><c>   2</c></rc>
    <rc><c>S </c><c>   2</c></rc>
    <rc><c>S </c><c>   2</c></rc>
    <rc><c>S </c><c>   2</c></rc>
    <rc><c>S </c><c>   2</c></rc>
    <rc><c>S </c><c>   2</c></rc>
    <rc><c>S </c><c>   2</c></rc>
    <rc><c>S </c><c>   2</c></rc>
    <rc><c>S </c><c>   2</c></rc>
    <rc><c>S </c><c>   2</c></rc>
    <rc><c>S </c><c>   2</c></rc>
    <rc><c>S </c><c>   2</c></rc>
    <rc><c>S </c><c>   2</c></rc>
    <rc><c>S </c><c>   2</c></rc>
    <rc><c>S </c><c>   2</c></rc>
    <rc><c>S </c><c>   2</c></rc>
    <rc><c>S </c><c>   2</c></rc>
    <rc><c>S </c><c>   2</c></rc>
    <rc><c>S </c><c>   2</c></rc>
    <rc><c>S </c><c>   2</c></rc>
    <rc><c>S </c><c>   2</c></rc>
    <rc><c>S </c><c>   2</c></rc>
    <rc><c>S </c><c>   2</c></rc>
    <rc><c>S </c><c>   2</c></rc>
    <rc><c>S </c><c>   2</c></rc>
    <rc><c>S </c><c>   2</c></rc>
    <rc><c>S </c><c>   2</c></rc>
    <rc><c>S </c><c>   2</c></rc>
    <rc><c>S </c><c>   2</c></rc>
    <rc><c>S </c><c>   2</c></rc>
    <rc><c>S </c><c>   2</c></rc>
    <rc><c>S </c><c>   2</c></rc>
    <rc><c>S </c><c>   2</c></rc>
    <rc><c>S </c><c>   2</c></rc>
    <rc><c>S </c><c>   2</c></rc>
    <rc><c>S </c><c>   2</c></rc>
    <rc><c>S </c><c>   2</c></rc>
    <rc><c>S </c><c>   2</c></rc>
    <rc><c>S </c><c>   2</c></rc>
    <rc><c>S </c><c>   2</c></rc>
    <rc><c>S </c><c>   2</c></rc>
    <rc><c>S </c><c>   2</c></rc>
    <rc><c>S </c><c>   2</c></rc>
    <rc><c>S </c><c>   2</c></rc>
    <rc><c>S </c><c>   2</c></rc>
    <rc><c>S </c><c>   2</c></rc>
    <rc><c>S </c><c>   2</c></rc>
    <rc><c>S </c><c>   2</c></rc>
    <rc><c>S </c><c>   2</c></rc>
    <rc><c>S </c><c>   2</c></rc>
    <rc><c>S </c><c>   2</c></rc>
    <rc><c>S </c><c>   2</c></rc>
    <rc><c>S </c><c>   2</c></rc>
    <rc><c>S </c><c>   2</c></rc>
    <rc><c>S </c><c>   2</c></rc>
    <rc><c>S </c><c>   2</c></rc>
    <rc><c>S </c><c>   2</c></rc>
   </set>
  </array>
  <array name="atomtypes" >
   <dimension dim="1">type</dimension>
   <field type="int">atomspertype</field>
   <field type="string">element</field>
   <field>mass</field>
   <field>valence</field>
   <field type="string">pseudopotential</field>
   <set>
    <rc><c>  50</c><c>Mo</c><c>     95.94000000</c><c>     12.00000000</c><c> PAW Mo_pv 08Jan2002                    </c></rc>
    <rc><c> 100</c><c>S </c><c>     32.06600000</c><c>      6.00000000</c><c>  PAW S_h 21Jan2003                     </c></rc>
   </set>
  </array>
 </atominfo>
 <structure name="initialpos" >
  <crystal>
   <varray name="basis" >
    <v>      15.65451448      -0.00000001       0.00000000 </v>
    <v>      -7.82725475      13.55720592       0.00000000 </v>
    <v>       0.00000000       0.00000000      26.00697779 </v>
   </varray>
   <i name="volume">   5519.49928921 </i>
   <varray name="rec_basis" >
    <v>       0.06387934       0.03688074       0.00000000 </v>
    <v>       0.00000000       0.07376151       0.00000000 </v>
    <v>       0.00000000       0.00000000       0.03845122 </v>
   </varray>
  </crystal>
  <varray name="positions" >
   <v>       0.06666667       0.13333333       0.17304109 </v>
   <v>       0.26666667       0.13333333       0.17304109 </v>
   <v>       0.46666667       0.13333333       0.17304109 </v>
   <v>       0.66666667       0.13333333       0.17304109 </v>
   <v>       0.86666667       0.13333333       0.17304109 </v>
   <v>       0.06666667       0.33333333       0.17304109 </v>
   <v>       0.26666667       0.33333333       0.17304109 </v>
   <v>       0.46666667       0.33333333       0.17304109 </v>
   <v>       0.66666667       0.33333333       0.17304109 </v>
   <v>       0.86666667       0.33333333       0.17304109 </v>
   <v>       0.06666667       0.53333333       0.17304109 </v>
   <v>       0.26666667       0.53333333       0.17304109 </v>
   <v>       0.46666667       0.53333333       0.17304109 </v>
   <v>       0.66666667       0.53333333       0.17304109 </v>
   <v>       0.86666667       0.53333333       0.17304109 </v>
   <v>       0.06666667       0.73333333       0.17304109 </v>
   <v>       0.26666667       0.73333333       0.17304109 </v>
   <v>       0.46666667       0.73333333       0.17304109 </v>
   <v>       0.66666667       0.73333333       0.17304109 </v>
   <v>       0.86666667       0.73333333       0.17304109 </v>
   <v>       0.06666667       0.93333333       0.17304109 </v>
   <v>       0.26666667       0.93333333       0.17304109 </v>
   <v>       0.46666667       0.93333333       0.17304109 </v>
   <v>       0.66666667       0.93333333       0.17304109 </v>
   <v>       0.86666667       0.93333333       0.17304109 </v>
   <v>       0.13333333       0.06666667       0.40532935 </v>
   <v>       0.33333333       0.06666667       0.40532935 </v>
   <v>       0.53333333       0.06666667       0.40532935 </v>
   <v>       0.73333333       0.06666667       0.40532935 </v>
   <v>       0.93333333       0.06666667       0.40532935 </v>
   <v>       0.13333333       0.26666667       0.40532935 </v>
   <v>       0.33333333       0.26666667       0.40532935 </v>
   <v>       0.53333333       0.26666667       0.40532935 </v>
   <v>       0.73333333       0.26666667       0.40532935 </v>
   <v>       0.93333333       0.26666667       0.40532935 </v>
   <v>       0.13333333       0.46666667       0.40532935 </v>
   <v>       0.33333333       0.46666667       0.40532935 </v>
   <v>       0.53333333       0.46666667       0.40532935 </v>
   <v>       0.73333333       0.46666667       0.40532935 </v>
   <v>       0.93333333       0.46666667       0.40532935 </v>
   <v>       0.13333333       0.66666667       0.40532935 </v>
   <v>       0.33333333       0.66666667       0.40532935 </v>
   <v>       0.53333333       0.66666667       0.40532935 </v>
   <v>       0.73333333       0.66666667       0.40532935 </v>
   <v>       0.93333333       0.66666667       0.40532935 </v>
   <v>       0.13333333       0.86666667       0.40532935 </v>
   <v>       0.33333333       0.86666667       0.40532935 </v>
   <v>       0.53333333       0.86666667       0.40532935 </v>
   <v>       0.73333333       0.86666667       0.40532935 </v>
   <v>       0.93333333       0.86666667       0.40532935 </v>
   <v>       0.13366277       0.06666667       0.11351605 </v>
   <v>       0.33333333       0.06666667       0.11318662 </v>
   <v>       0.53333333       0.06666667       0.11318662 </v>
   <v>       0.73333333       0.06666667       0.11318662 </v>
   <v>       0.93333333       0.06666667       0.11318662 </v>
   <v>       0.13333333       0.26666667       0.11318662 </v>
   <v>       0.33333333       0.26666667       0.11318662 </v>
   <v>       0.53333333       0.26666667       0.11318662 </v>
   <v>       0.73333333       0.26666667       0.11318662 </v>
   <v>       0.93333333       0.26666667       0.11318662 </v>
   <v>       0.13333333       0.46666667       0.11318662 </v>
   <v>       0.33333333       0.46666667       0.11318662 </v>
   <v>       0.53333333       0.46666667       0.11318662 </v>
   <v>       0.73333333       0.46666667       0.11318662 </v>
   <v>       0.93333333       0.46666667       0.11318662 </v>
   <v>       0.13333333       0.66666667       0.11318662 </v>
   <v>       0.33333333       0.66666667       0.11318662 </v>
   <v>       0.53333333       0.66666667       0.11318662 </v>
   <v>       0.73333333       0.66666667       0.11318662 </v>
   <v>       0.93333333       0.66666667       0.11318662 </v>
   <v>       0.13333333       0.86666667       0.11318662 </v>
   <v>       0.33333333       0.86666667       0.11318662 </v>
   <v>       0.53333333       0.86666667       0.11318662 </v>
   <v>       0.73333333       0.86666667       0.11318662 </v>
   <v>       0.93333333       0.86666667       0.11318662 </v>
   <v>       0.13333333       0.06666667       0.23301500 </v>
   <v>       0.33333333       0.06666667       0.23301500 </v>
   <v>       0.53333333       0.06666667       0.23301500 </v>
   <v>       0.73333333       0.06666667       0.23301500 </v>
   <v>       0.93333333       0.06666667       0.23301500 </v>
   <v>       0.13333333       0.26666667       0.23301500 </v>
   <v>       0.33333333       0.26666667       0.23301500 </v>
   <v>       0.53333333       0.26666667       0.23301500 </v>
   <v>       0.73333333       0.26666667       0.23301500 </v>
   <v>       0.93333333       0.26666667       0.23301500 </v>
   <v>       0.13333333       0.46666667       0.23301500 </v>
   <v>       0.33333333       0.46666667       0.23301500 </v>
   <v>       0.53333333       0.46666667       0.23301500 </v>
   <v>       0.73333333       0.46666667       0.23301500 </v>
   <v>       0.93333333       0.46666667       0.23301500 </v>
   <v>       0.13333333       0.66666667       0.23301500 </v>
   <v>       0.33333333       0.66666667       0.23301500 </v>
   <v>       0.53333333       0.66666667       0.23301500 </v>
   <v>       0.73333333       0.66666667       0.23301500 </v>
   <v>       0.93333333       0.66666667       0.23301500 </v>
   <v>       0.13333333       0.86666667       0.23301500 </v>
   <v>       0.33333333       0.86666667       0.23301500 </v>
   <v>       0.53333333       0.86666667       0.23301500 </v>
   <v>       0.73333333       0.86666667       0.23301500 </v>
   <v>       0.93333333       0.86666667       0.23301500 </v>
   <v>       0.06666667       0.13333333       0.34535543 </v>
   <v>       0.26666667       0.13333333       0.34535543 </v>
   <v>       0.46666667       0.13333333       0.34535543 </v>
   <v>       0.66666667       0.13333333       0.34535543 </v>
   <v>       0.86666667       0.13333333       0.34535543 </v>
   <v>       0.06666667       0.33333333       0.34535543 </v>
   <v>       0.26666667       0.33333333       0.34535543 </v>
   <v>       0.46666667       0.33333333       0.34535543 </v>
   <v>       0.66666667       0.33333333       0.34535543 </v>
   <v>       0.86666667       0.33333333       0.34535543 </v>
   <v>       0.06666667       0.53333333       0.34535543 </v>
   <v>       0.26666667       0.53333333       0.34535543 </v>
   <v>       0.46666667       0.53333333       0.34535543 </v>
   <v>       0.66666667       0.53333333       0.34535543 </v>
   <v>       0.86666667       0.53333333       0.34535543 </v>
   <v>       0.06666667       0.73333333       0.34535543 </v>
   <v>       0.26666667       0.73333333       0.34535543 </v>
   <v>       0.46666667       0.73333333       0.34535543 </v>
   <v>       0.66666667       0.73333333       0.34535543 </v>
   <v>       0.86666667       0.73333333       0.34535543 </v>
   <v>       0.06666667       0.93333333       0.34535543 </v>
   <v>       0.26666667       0.93333333       0.34535543 </v>
   <v>       0.46666667       0.93333333       0.34535543 </v>
   <v>       0.66666667       0.93333333       0.34535543 </v>
   <v>       0.86666667       0.93333333       0.34535543 </v>
   <v>       0.06666667       0.13333333       0.46518382 </v>
   <v>       0.26666667       0.13333333       0.46518382 </v>
   <v>       0.46666667       0.13333333       0.46518382 </v>
   <v>       0.66666667       0.13333333       0.46518382 </v>
   <v>       0.86666667       0.13333333       0.46518382 </v>
   <v>       0.06666667       0.33333333       0.46518382 </v>
   <v>       0.26666667       0.33333333       0.46518382 </v>
   <v>       0.46666667       0.33333333       0.46518382 </v>
   <v>       0.66666667       0.33333333       0.46518382 </v>
   <v>       0.86666667       0.33333333       0.46518382 </v>
   <v>       0.06666667       0.53333333       0.46518382 </v>
   <v>       0.26666667       0.53333333       0.46518382 </v>
   <v>       0.46666667       0.53333333       0.46518382 </v>
   <v>       0.66666667       0.53333333       0.46518382 </v>
   <v>       0.86666667       0.53333333       0.46518382 </v>
   <v>       0.06666667       0.73333333       0.46518382 </v>
   <v>       0.26666667       0.73333333       0.46518382 </v>
   <v>       0.46666667       0.73333333       0.46518382 </v>
   <v>       0.66666667       0.73333333       0.46518382 </v>
   <v>       0.86666667       0.73333333       0.46518382 </v>
   <v>       0.06666667       0.93333333       0.46518382 </v>
   <v>       0.26666667       0.93333333       0.46518382 </v>
   <v>       0.46666667       0.93333333       0.46518382 </v>
   <v>       0.66666667       0.93333333       0.46518382 </v>
   <v>       0.86666667       0.93333333       0.46518382 </v>
  </varray>
 </structure>
 <calculation>
  <scstep>
   <time name="dav">******** 1584.51</time>
   <time name="total">******** 1589.20</time>
   <energy>
    <i name="alphaZ">   2096.25038681 </i>
    <i name="ewald"> 360988.09638573 </i>
    <i name="hartreedc">-445146.58560049 </i>
    <i name="XCdc">   2153.03855524 </i>
    <i name="pawpsdc">  49961.83574437 </i>
    <i name="pawaedc"> -47918.29686678 </i>
    <i name="eentropy">     -0.00286049 </i>
    <i name="bandstr">  -3160.49184226 </i>
    <i name="atom">  92113.52951886 </i>
    <i name="e_fr_energy">  11087.37342097 </i>
    <i name="e_wo_entrp">  11087.37628146 </i>
    <i name="e_0_energy">  11087.37485121 </i>
   </energy>
  </scstep>
  <scstep>
   <time name="dav">******** 1645.39</time>
   <time name="total"> 1645.59 1645.59</time>
   <energy>
    <i name="e_fr_energy">   -267.47882487 </i>
    <i name="e_wo_entrp">   -267.47882487 </i>
    <i name="e_0_energy">   -267.47882487 </i>
   </energy>
  </scstep>
  <scstep>
   <time name="dav">******** 1639.79</time>
   <time name="total"> 1639.99 1639.99</time>
   <energy>
    <i name="e_fr_energy">  -1232.08352997 </i>
    <i name="e_wo_entrp">  -1232.08352997 </i>
    <i name="e_0_energy">  -1232.08352997 </i>
   </energy>
  </scstep>
  <scstep>
   <time name="dav">******** 1805.30</time>
   <time name="total"> 1805.51 1805.51</time>
   <energy>
    <i name="e_fr_energy">  -1284.07595764 </i>
    <i name="e_wo_entrp">  -1284.07595764 </i>
    <i name="e_0_energy">  -1284.07595764 </i>
   </energy>
  </scstep>
  <scstep>
   <time name="dav">******** 1991.67</time>
   <time name="total">85767.79 2072.94</time>
   <energy>
    <i name="e_fr_energy">  -1286.12646960 </i>
    <i name="e_wo_entrp">  -1286.12646960 </i>
    <i name="e_0_energy">  -1286.12646960 </i>
   </energy>
  </scstep>
  <scstep>
   <time name="dav">******** 1799.50</time>
   <time name="total"> 1884.92 1884.92</time>
   <energy>
    <i name="e_fr_energy">  -1231.42633636 </i>
    <i name="e_wo_entrp">  -1231.42633636 </i>
    <i name="e_0_energy">  -1231.42633636 </i>
   </energy>
  </scstep>
  <scstep>
   <time name="dav">******** 1760.99</time>
   <time name="total"> 1846.47 1846.47</time>
   <energy>
    <i name="e_fr_energy">  -1216.81948701 </i>
    <i name="e_wo_entrp">  -1216.81948701 </i>
    <i name="e_0_energy">  -1216.81948701 </i>
   </energy>
  </scstep>
  <scstep>
   <time name="dav">******** 1662.13</time>
   <time name="total"> 1748.06 1748.06</time>
   <energy>
    <i name="e_fr_energy">  -1214.54747253 </i>
    <i name="e_wo_entrp">  -1214.54747253 </i>
    <i name="e_0_energy">  -1214.54747253 </i>
   </energy>
  </scstep>
  <scstep>
   <time name="dav">******** 1934.30</time>
   <time name="total"> 2019.88 2019.88</time>
   <energy>
    <i name="e_fr_energy">  -1214.46727471 </i>
    <i name="e_wo_entrp">  -1214.46727471 </i>
    <i name="e_0_energy">  -1214.46727471 </i>
   </energy>
  </scstep>
  <scstep>
   <time name="dav">******** 1812.04</time>
   <time name="total"> 1897.64 1897.64</time>
   <energy>
    <i name="e_fr_energy">  -1214.41214508 </i>
    <i name="e_wo_entrp">  -1214.41214508 </i>
    <i name="e_0_energy">  -1214.41214508 </i>
   </energy>
  </scstep>
  <scstep>
   <time name="dav">******** 1784.64</time>
   <time name="total"> 1870.48 1870.48</time>
   <energy>
    <i name="e_fr_energy">  -1214.40547354 </i>
    <i name="e_wo_entrp">  -1214.40547354 </i>
    <i name="e_0_energy">  -1214.40547354 </i>
   </energy>
  </scstep>
  <scstep>
   <time name="dav">******** 1743.99</time>
   <time name="total"> 1830.36 1830.36</time>
   <energy>
    <i name="e_fr_energy">  -1214.40663998 </i>
    <i name="e_wo_entrp">  -1214.40663998 </i>
    <i name="e_0_energy">  -1214.40663998 </i>
   </energy>
  </scstep>
  <scstep>
   <time name="dav">******** 1671.98</time>
   <time name="total"> 1758.30 1758.30</time>
   <energy>
    <i name="e_fr_energy">  -1214.41046486 </i>
    <i name="e_wo_entrp">  -1214.41046486 </i>
    <i name="e_0_energy">  -1214.41046486 </i>
   </energy>
  </scstep>
  <scstep>
   <time name="dav">******** 1645.14</time>
   <time name="total"> 1731.59 1731.59</time>
   <energy>
    <i name="e_fr_energy">  -1214.41466072 </i>
    <i name="e_wo_entrp">  -1214.41466072 </i>
    <i name="e_0_energy">  -1214.41466072 </i>
   </energy>
  </scstep>
  <scstep>
   <time name="dav">******** 1774.91</time>
   <time name="total"> 1861.21 1861.21</time>
   <energy>
    <i name="e_fr_energy">  -1214.41813078 </i>
    <i name="e_wo_entrp">  -1214.41813078 </i>
    <i name="e_0_energy">  -1214.41813078 </i>
   </energy>
  </scstep>
  <scstep>
   <time name="dav">******** 1667.54</time>
   <time name="total"> 1752.96 1752.96</time>
   <energy>
    <i name="e_fr_energy">  -1214.42118561 </i>
    <i name="e_wo_entrp">  -1214.42118561 </i>
    <i name="e_0_energy">  -1214.42118561 </i>
   </energy>
  </scstep>
  <scstep>
   <time name="dav">******** 1610.04</time>
   <time name="total"> 1695.43 1695.43</time>
   <energy>
    <i name="e_fr_energy">  -1214.42371448 </i>
    <i name="e_wo_entrp">  -1214.42371448 </i>
    <i name="e_0_energy">  -1214.42371448 </i>
   </energy>
  </scstep>
  <scstep>
   <time name="dav">******** 1678.99</time>
   <time name="total"> 1764.43 1764.43</time>
   <energy>
    <i name="e_fr_energy">  -1214.42456841 </i>
    <i name="e_wo_entrp">  -1214.42456841 </i>
    <i name="e_0_energy">  -1214.42456841 </i>
   </energy>
  </scstep>
  <scstep>
   <time name="dav">******** 1593.91</time>
   <time name="total"> 1679.26 1679.26</time>
   <energy>
    <i name="e_fr_energy">  -1214.42526847 </i>
    <i name="e_wo_entrp">  -1214.42526847 </i>
    <i name="e_0_energy">  -1214.42526847 </i>
   </energy>
  </scstep>
  <scstep>
   <time name="dav">******** 1608.27</time>
   <time name="total"> 1693.58 1693.58</time>
   <energy>
    <i name="e_fr_energy">  -1214.42561107 </i>
    <i name="e_wo_entrp">  -1214.42561107 </i>
    <i name="e_0_energy">  -1214.42561107 </i>
   </energy>
  </scstep>
  <scstep>
   <time name="dav">******** 1612.66</time>
   <time name="total"> 1698.11 1698.11</time>
   <energy>
    <i name="e_fr_energy">  -1214.42570651 </i>
    <i name="e_wo_entrp">  -1214.42570651 </i>
    <i name="e_0_energy">  -1214.42570651 </i>
   </energy>
  </scstep>
  <scstep>
   <time name="dav">******** 1627.48</time>
   <time name="total"> 1712.59 1712.59</time>
   <energy>
    <i name="e_fr_energy">  -1214.42581330 </i>
    <i name="e_wo_entrp">  -1214.42581330 </i>
    <i name="e_0_energy">  -1214.42581330 </i>
   </energy>
  </scstep>
  <scstep>
   <time name="dav">******** 1602.45</time>
   <time name="total"> 1687.77 1687.77</time>
   <energy>
    <i name="e_fr_energy">  -1214.42594689 </i>
    <i name="e_wo_entrp">  -1214.42594689 </i>
    <i name="e_0_energy">  -1214.42594689 </i>
   </energy>
  </scstep>
  <scstep>
   <time name="dav">******** 1611.15</time>
   <time name="total"> 1696.26 1696.26</time>
   <energy>
    <i name="e_fr_energy">  -1214.42608546 </i>
    <i name="e_wo_entrp">  -1214.42608546 </i>
    <i name="e_0_energy">  -1214.42608546 </i>
   </energy>
  </scstep>
  <scstep>
   <time name="dav">******** 1540.58</time>
   <time name="total"> 1625.66 1625.66</time>
   <energy>
    <i name="e_fr_energy">  -1214.42617427 </i>
    <i name="e_wo_entrp">  -1214.42617427 </i>
    <i name="e_0_energy">  -1214.42617427 </i>
   </energy>
  </scstep>
  <scstep>
   <time name="dav">******** 1516.28</time>
   <time name="total"> 1601.43 1601.43</time>
   <energy>
    <i name="e_fr_energy">  -1214.42622058 </i>
    <i name="e_wo_entrp">  -1214.42622058 </i>
    <i name="e_0_energy">  -1214.42622058 </i>
   </energy>
  </scstep>
  <scstep>
   <time name="dav">******** 1527.50</time>
   <time name="total"> 1612.70 1612.70</time>
   <energy>
    <i name="e_fr_energy">  -1214.42625178 </i>
    <i name="e_wo_entrp">  -1214.42625178 </i>
    <i name="e_0_energy">  -1214.42625178 </i>
   </energy>
  </scstep>
  <scstep>
   <time name="dav">******** 1384.19</time>
   <time name="total"> 1469.48 1469.48</time>
   <energy>
    <i name="e_fr_energy">  -1214.42626200 </i>
    <i name="e_wo_entrp">  -1214.42626200 </i>
    <i name="e_0_energy">  -1214.42626200 </i>
   </energy>
  </scstep>
  <scstep>
   <time name="dav">******** 1327.41</time>
   <time name="total"> 1412.65 1412.65</time>
   <energy>
    <i name="e_fr_energy">  -1214.42626633 </i>
    <i name="e_wo_entrp">  -1214.42626633 </i>
    <i name="e_0_energy">  -1214.42626633 </i>
   </energy>
  </scstep>
  <scstep>
   <time name="dav">******** 1212.82</time>
   <time name="total"> 1297.94 1297.94</time>
   <energy>
    <i name="e_fr_energy">  -1214.42626689 </i>
    <i name="e_wo_entrp">  -1214.42626689 </i>
    <i name="e_0_energy">  -1214.42626689 </i>
   </energy>
  </scstep>
  <scstep>
   <time name="dav">******** 1132.77</time>
   <time name="total"> 1217.81 1217.81</time>
   <energy>
    <i name="e_fr_energy">  -1214.42626716 </i>
    <i name="e_wo_entrp">  -1214.42626716 </i>
    <i name="e_0_energy">  -1214.42626716 </i>
   </energy>
  </scstep>
  <scstep>
   <time name="dav">******** 1155.52</time>
   <time name="total"> 1240.61 1240.61</time>
   <energy>
    <i name="e_fr_energy">  -1214.42626734 </i>
    <i name="e_wo_entrp">  -1214.42626734 </i>
    <i name="e_0_energy">  -1214.42626734 </i>
   </energy>
  </scstep>
  <scstep>
   <time name="dav">******** 1098.89</time>
   <time name="total"> 1184.12 1184.12</time>
   <energy>
    <i name="e_fr_energy">  -1214.42626740 </i>
    <i name="e_wo_entrp">  -1214.42626740 </i>
    <i name="e_0_energy">  -1214.42626740 </i>
   </energy>
  </scstep>
  <scstep>
   <time name="dav">******** 1069.85</time>
   <time name="total"> 1155.06 1155.06</time>
   <energy>
    <i name="e_fr_energy">  -1214.42626742 </i>
    <i name="e_wo_entrp">  -1214.42626742 </i>
    <i name="e_0_energy">  -1214.42626742 </i>
   </energy>
  </scstep>
  <scstep>
   <time name="dav">******** 1048.74</time>
   <time name="total">******** 1053.33</time>
   <energy>
    <i name="alphaZ">   2096.25038681 </i>
    <i name="ewald"> 360988.09638573 </i>
    <i name="hartreedc">-445019.28189292 </i>
    <i name="XCdc">   2130.76368346 </i>
    <i name="pawpsdc">  53566.13369513 </i>
    <i name="pawaedc"> -51762.99410020 </i>
    <i name="eentropy">      0.00000000 </i>
    <i name="bandstr"> -15326.92394428 </i>
    <i name="atom">  92113.52951886 </i>
    <i name="e_fr_energy">  -1214.42626742 </i>
    <i name="e_wo_entrp">  -1214.42626742 </i>
    <i name="e_0_energy">  -1214.42626742 </i>
   </energy>
  </scstep>
  <structure>
   <crystal>
    <varray name="basis" >
     <v>      15.65451448      -0.00000001       0.00000000 </v>
     <v>      -7.82725475      13.55720592       0.00000000 </v>
     <v>       0.00000000       0.00000000      26.00697779 </v>
    </varray>
    <i name="volume">   5519.49928921 </i>
    <varray name="rec_basis" >
     <v>       0.06387934       0.03688074       0.00000000 </v>
     <v>       0.00000000       0.07376151       0.00000000 </v>
     <v>       0.00000000       0.00000000       0.03845122 </v>
    </varray>
   </crystal>
   <varray name="positions" >
    <v>       0.06666667       0.13333333       0.17304109 </v>
    <v>       0.26666667       0.13333333       0.17304109 </v>
    <v>       0.46666667       0.13333333       0.17304109 </v>
    <v>       0.66666667       0.13333333       0.17304109 </v>
    <v>       0.86666667       0.13333333       0.17304109 </v>
    <v>       0.06666667       0.33333333       0.17304109 </v>
    <v>       0.26666667       0.33333333       0.17304109 </v>
    <v>       0.46666667       0.33333333       0.17304109 </v>
    <v>       0.66666667       0.33333333       0.17304109 </v>
    <v>       0.86666667       0.33333333       0.17304109 </v>
    <v>       0.06666667       0.53333333       0.17304109 </v>
    <v>       0.26666667       0.53333333       0.17304109 </v>
    <v>       0.46666667       0.53333333       0.17304109 </v>
    <v>       0.66666667       0.53333333       0.17304109 </v>
    <v>       0.86666667       0.53333333       0.17304109 </v>
    <v>       0.06666667       0.73333333       0.17304109 </v>
    <v>       0.26666667       0.73333333       0.17304109 </v>
    <v>       0.46666667       0.73333333       0.17304109 </v>
    <v>       0.66666667       0.73333333       0.17304109 </v>
    <v>       0.86666667       0.73333333       0.17304109 </v>
    <v>       0.06666667       0.93333333       0.17304109 </v>
    <v>       0.26666667       0.93333333       0.17304109 </v>
    <v>       0.46666667       0.93333333       0.17304109 </v>
    <v>       0.66666667       0.93333333       0.17304109 </v>
    <v>       0.86666667       0.93333333       0.17304109 </v>
    <v>       0.13333333       0.06666667       0.40532935 </v>
    <v>       0.33333333       0.06666667       0.40532935 </v>
    <v>       0.53333333       0.06666667       0.40532935 </v>
    <v>       0.73333333       0.06666667       0.40532935 </v>
    <v>       0.93333333       0.06666667       0.40532935 </v>
    <v>       0.13333333       0.26666667       0.40532935 </v>
    <v>       0.33333333       0.26666667       0.40532935 </v>
    <v>       0.53333333       0.26666667       0.40532935 </v>
    <v>       0.73333333       0.26666667       0.40532935 </v>
    <v>       0.93333333       0.26666667       0.40532935 </v>
    <v>       0.13333333       0.46666667       0.40532935 </v>
    <v>       0.33333333       0.46666667       0.40532935 </v>
    <v>       0.53333333       0.46666667       0.40532935 </v>
    <v>       0.73333333       0.46666667       0.40532935 </v>
    <v>       0.93333333       0.46666667       0.40532935 </v>
    <v>       0.13333333       0.66666667       0.40532935 </v>
    <v>       0.33333333       0.66666667       0.40532935 </v>
    <v>       0.53333333       0.66666667       0.40532935 </v>
    <v>       0.73333333       0.66666667       0.40532935 </v>
    <v>       0.93333333       0.66666667       0.40532935 </v>
    <v>       0.13333333       0.86666667       0.40532935 </v>
    <v>       0.33333333       0.86666667       0.40532935 </v>
    <v>       0.53333333       0.86666667       0.40532935 </v>
    <v>       0.73333333       0.86666667       0.40532935 </v>
    <v>       0.93333333       0.86666667       0.40532935 </v>
    <v>       0.13366277       0.06666667       0.11351605 </v>
    <v>       0.33333333       0.06666667       0.11318662 </v>
    <v>       0.53333333       0.06666667       0.11318662 </v>
    <v>       0.73333333       0.06666667       0.11318662 </v>
    <v>       0.93333333       0.06666667       0.11318662 </v>
    <v>       0.13333333       0.26666667       0.11318662 </v>
    <v>       0.33333333       0.26666667       0.11318662 </v>
    <v>       0.53333333       0.26666667       0.11318662 </v>
    <v>       0.73333333       0.26666667       0.11318662 </v>
    <v>       0.93333333       0.26666667       0.11318662 </v>
    <v>       0.13333333       0.46666667       0.11318662 </v>
    <v>       0.33333333       0.46666667       0.11318662 </v>
    <v>       0.53333333       0.46666667       0.11318662 </v>
    <v>       0.73333333       0.46666667       0.11318662 </v>
    <v>       0.93333333       0.46666667       0.11318662 </v>
    <v>       0.13333333       0.66666667       0.11318662 </v>
    <v>       0.33333333       0.66666667       0.11318662 </v>
    <v>       0.53333333       0.66666667       0.11318662 </v>
    <v>       0.73333333       0.66666667       0.11318662 </v>
    <v>       0.93333333       0.66666667       0.11318662 </v>
    <v>       0.13333333       0.86666667       0.11318662 </v>
    <v>       0.33333333       0.86666667       0.11318662 </v>
    <v>       0.53333333       0.86666667       0.11318662 </v>
    <v>       0.73333333       0.86666667       0.11318662 </v>
    <v>       0.93333333       0.86666667       0.11318662 </v>
    <v>       0.13333333       0.06666667       0.23301500 </v>
    <v>       0.33333333       0.06666667       0.23301500 </v>
    <v>       0.53333333       0.06666667       0.23301500 </v>
    <v>       0.73333333       0.06666667       0.23301500 </v>
    <v>       0.93333333       0.06666667       0.23301500 </v>
    <v>       0.13333333       0.26666667       0.23301500 </v>
    <v>       0.33333333       0.26666667       0.23301500 </v>
    <v>       0.53333333       0.26666667       0.23301500 </v>
    <v>       0.73333333       0.26666667       0.23301500 </v>
    <v>       0.93333333       0.26666667       0.23301500 </v>
    <v>       0.13333333       0.46666667       0.23301500 </v>
    <v>       0.33333333       0.46666667       0.23301500 </v>
    <v>       0.53333333       0.46666667       0.23301500 </v>
    <v>       0.73333333       0.46666667       0.23301500 </v>
    <v>       0.93333333       0.46666667       0.23301500 </v>
    <v>       0.13333333       0.66666667       0.23301500 </v>
    <v>       0.33333333       0.66666667       0.23301500 </v>
    <v>       0.53333333       0.66666667       0.23301500 </v>
    <v>       0.73333333       0.66666667       0.23301500 </v>
    <v>       0.93333333       0.66666667       0.23301500 </v>
    <v>       0.13333333       0.86666667       0.23301500 </v>
    <v>       0.33333333       0.86666667       0.23301500 </v>
    <v>       0.53333333       0.86666667       0.23301500 </v>
    <v>       0.73333333       0.86666667       0.23301500 </v>
    <v>       0.93333333       0.86666667       0.23301500 </v>
    <v>       0.06666667       0.13333333       0.34535543 </v>
    <v>       0.26666667       0.13333333       0.34535543 </v>
    <v>       0.46666667       0.13333333       0.34535543 </v>
    <v>       0.66666667       0.13333333       0.34535543 </v>
    <v>       0.86666667       0.13333333       0.34535543 </v>
    <v>       0.06666667       0.33333333       0.34535543 </v>
    <v>       0.26666667       0.33333333       0.34535543 </v>
    <v>       0.46666667       0.33333333       0.34535543 </v>
    <v>       0.66666667       0.33333333       0.34535543 </v>
    <v>       0.86666667       0.33333333       0.34535543 </v>
    <v>       0.06666667       0.53333333       0.34535543 </v>
    <v>       0.26666667       0.53333333       0.34535543 </v>
    <v>       0.46666667       0.53333333       0.34535543 </v>
    <v>       0.66666667       0.53333333       0.34535543 </v>
    <v>       0.86666667       0.53333333       0.34535543 </v>
    <v>       0.06666667       0.73333333       0.34535543 </v>
    <v>       0.26666667       0.73333333       0.34535543 </v>
    <v>       0.46666667       0.73333333       0.34535543 </v>
    <v>       0.66666667       0.73333333       0.34535543 </v>
    <v>       0.86666667       0.73333333       0.34535543 </v>
    <v>       0.06666667       0.93333333       0.34535543 </v>
    <v>       0.26666667       0.93333333       0.34535543 </v>
    <v>       0.46666667       0.93333333       0.34535543 </v>
    <v>       0.66666667       0.93333333       0.34535543 </v>
    <v>       0.86666667       0.93333333       0.34535543 </v>
    <v>       0.06666667       0.13333333       0.46518382 </v>
    <v>       0.26666667       0.13333333       0.46518382 </v>
    <v>       0.46666667       0.13333333       0.46518382 </v>
    <v>       0.66666667       0.13333333       0.46518382 </v>
    <v>       0.86666667       0.13333333       0.46518382 </v>
    <v>       0.06666667       0.33333333       0.46518382 </v>
    <v>       0.26666667       0.33333333       0.46518382 </v>
    <v>       0.46666667       0.33333333       0.46518382 </v>
    <v>       0.66666667       0.33333333       0.46518382 </v>
    <v>       0.86666667       0.33333333       0.46518382 </v>
    <v>       0.06666667       0.53333333       0.46518382 </v>
    <v>       0.26666667       0.53333333       0.46518382 </v>
    <v>       0.46666667       0.53333333       0.46518382 </v>
    <v>       0.66666667       0.53333333       0.46518382 </v>
    <v>       0.86666667       0.53333333       0.46518382 </v>
    <v>       0.06666667       0.73333333       0.46518382 </v>
    <v>       0.26666667       0.73333333       0.46518382 </v>
    <v>       0.46666667       0.73333333       0.46518382 </v>
    <v>       0.66666667       0.73333333       0.46518382 </v>
    <v>       0.86666667       0.73333333       0.46518382 </v>
    <v>       0.06666667       0.93333333       0.46518382 </v>
    <v>       0.26666667       0.93333333       0.46518382 </v>
    <v>       0.46666667       0.93333333       0.46518382 </v>
    <v>       0.66666667       0.93333333       0.46518382 </v>
    <v>       0.86666667       0.93333333       0.46518382 </v>
   </varray>
  </structure>
  <varray name="forces" >
   <v>      -0.00392248       0.00718956       0.02528506 </v>
   <v>       0.05287058       0.02560539       0.06176603 </v>
   <v>       0.00029971       0.00028883       0.00174256 </v>
   <v>       0.00007130      -0.00010309       0.00069421 </v>
   <v>       0.00042875      -0.00016569       0.00102808 </v>
   <v>       0.00005857       0.00024616       0.00123105 </v>
   <v>      -0.00231749       0.00060970       0.00269582 </v>
   <v>       0.00009072      -0.00043774       0.00154165 </v>
   <v>      -0.00002054       0.00000712       0.00074581 </v>
   <v>      -0.00009803       0.00002578       0.00076121 </v>
   <v>       0.00010298       0.00001689       0.00069714 </v>
   <v>      -0.00001671      -0.00016617       0.00055083 </v>
   <v>       0.00007996      -0.00006353       0.00069530 </v>
   <v>      -0.00008028       0.00008614       0.00068480 </v>
   <v>      -0.00004312      -0.00004644       0.00075620 </v>
   <v>       0.00023605      -0.00050374       0.00158077 </v>
   <v>      -0.00021246       0.00009495       0.00065316 </v>
   <v>      -0.00002273       0.00000256       0.00065086 </v>
   <v>       0.00003218      -0.00006382       0.00058518 </v>
   <v>       0.00040141       0.00056685       0.00117695 </v>
   <v>       0.00852595      -0.03260276       0.04334973 </v>
   <v>       0.00081388      -0.00180985       0.00366120 </v>
   <v>      -0.00012578       0.00013833       0.00073021 </v>
   <v>       0.00001871       0.00005814       0.00051773 </v>
   <v>      -0.00025470       0.00118905       0.00174207 </v>
   <v>       0.00001544       0.00000356      -0.00078372 </v>
   <v>       0.00000475       0.00000646      -0.00068202 </v>
   <v>       0.00000444       0.00000315      -0.00071943 </v>
   <v>      -0.00000416      -0.00000177      -0.00070063 </v>
   <v>      -0.00000321       0.00001538      -0.00069412 </v>
   <v>      -0.00001473       0.00000286      -0.00066774 </v>
   <v>       0.00000175      -0.00000639      -0.00069389 </v>
   <v>      -0.00000602      -0.00000379      -0.00070714 </v>
   <v>       0.00000709      -0.00000664      -0.00070081 </v>
   <v>      -0.00000677       0.00001143      -0.00069185 </v>
   <v>      -0.00000041       0.00000686      -0.00070258 </v>
   <v>      -0.00000987       0.00001485      -0.00069647 </v>
   <v>       0.00000384       0.00000363      -0.00072397 </v>
   <v>      -0.00000377       0.00001086      -0.00070161 </v>
   <v>       0.00000338       0.00000251      -0.00071214 </v>
   <v>       0.00000491      -0.00000390      -0.00070514 </v>
   <v>       0.00000276       0.00000144      -0.00070335 </v>
   <v>      -0.00000413       0.00000002      -0.00071029 </v>
   <v>      -0.00000454      -0.00000269      -0.00070771 </v>
   <v>       0.00000690      -0.00000443      -0.00069868 </v>
   <v>      -0.00000400      -0.00001505      -0.00066691 </v>
   <v>       0.00000807      -0.00001154      -0.00069839 </v>
   <v>      -0.00000186      -0.00000498      -0.00071241 </v>
   <v>      -0.00001087      -0.00000159      -0.00068393 </v>
   <v>       0.00001411      -0.00000217      -0.00070518 </v>
   <v>      -0.06282885      -0.00021257      -0.13306238 </v>
   <v>       0.00282762      -0.00015036      -0.00257742 </v>
   <v>      -0.00002948       0.00006008       0.00018823 </v>
   <v>       0.00003589       0.00008423       0.00015251 </v>
   <v>       0.00405308      -0.00044952      -0.00330594 </v>
   <v>       0.00105328      -0.00196879      -0.00296319 </v>
   <v>      -0.00010181       0.00117006      -0.00292245 </v>
   <v>      -0.00002213       0.00000670       0.00043353 </v>
   <v>       0.00003476       0.00002626       0.00038914 </v>
   <v>      -0.00022901       0.00010954       0.00048523 </v>
   <v>      -0.00003353      -0.00007688       0.00012637 </v>
   <v>      -0.00002556       0.00003864       0.00045727 </v>
   <v>       0.00006425      -0.00005809       0.00021410 </v>
   <v>       0.00004475      -0.00000661       0.00038581 </v>
   <v>      -0.00000299      -0.00002267       0.00039167 </v>
   <v>      -0.00007130       0.00001497       0.00014359 </v>
   <v>       0.00002931      -0.00000427       0.00037523 </v>
   <v>       0.00003166       0.00001081       0.00040121 </v>
   <v>       0.00009473      -0.00002718       0.00019554 </v>
   <v>      -0.00003645      -0.00011740       0.00045815 </v>
   <v>       0.00040713      -0.00115459      -0.00260016 </v>
   <v>      -0.00009015       0.00004210       0.00039296 </v>
   <v>       0.00004352       0.00000584       0.00038866 </v>
   <v>      -0.00016312      -0.00007462       0.00052255 </v>
   <v>       0.00053107       0.00255949      -0.00328789 </v>
   <v>      -0.00175679      -0.00000226       0.01620350 </v>
   <v>       0.00241719      -0.00205926       0.00222974 </v>
   <v>       0.00002463      -0.00005445       0.00076620 </v>
   <v>       0.00004313       0.00013542       0.00079422 </v>
   <v>      -0.00074543      -0.00060168       0.00028366 </v>
   <v>      -0.00026598       0.00043175       0.00009632 </v>
   <v>      -0.00099903       0.00365035       0.00241992 </v>
   <v>       0.00016306       0.00008501       0.00046761 </v>
   <v>      -0.00000662       0.00003000       0.00077484 </v>
   <v>      -0.00001809       0.00001329       0.00051560 </v>
   <v>      -0.00007568      -0.00017308       0.00081000 </v>
   <v>       0.00001737      -0.00004145       0.00049063 </v>
   <v>      -0.00001248       0.00011257       0.00074585 </v>
   <v>       0.00002948      -0.00002183       0.00077764 </v>
   <v>      -0.00002928      -0.00001406       0.00076725 </v>
   <v>      -0.00008780       0.00004204       0.00079663 </v>
   <v>       0.00000408       0.00000591       0.00078694 </v>
   <v>       0.00001409      -0.00000401       0.00075543 </v>
   <v>      -0.00000540      -0.00006073       0.00076049 </v>
   <v>       0.00001043      -0.00010167       0.00048961 </v>
   <v>       0.00128003      -0.00080202       0.00106436 </v>
   <v>       0.00004655      -0.00001276       0.00056658 </v>
   <v>       0.00000047       0.00000985       0.00077111 </v>
   <v>       0.00011545       0.00006071       0.00041980 </v>
   <v>      -0.00260164      -0.00059667       0.00144178 </v>
   <v>       0.00000701      -0.00000612      -0.00073312 </v>
   <v>      -0.00002463      -0.00001381      -0.00073596 </v>
   <v>      -0.00003231      -0.00002814      -0.00074637 </v>
   <v>       0.00000687      -0.00000794      -0.00074872 </v>
   <v>       0.00000889      -0.00001607      -0.00075106 </v>
   <v>       0.00001119       0.00000356      -0.00074911 </v>
   <v>      -0.00001499      -0.00000132      -0.00078306 </v>
   <v>      -0.00004532      -0.00001365      -0.00075155 </v>
   <v>       0.00000581       0.00000392      -0.00075198 </v>
   <v>       0.00001493      -0.00000279      -0.00075287 </v>
   <v>       0.00000326       0.00000130      -0.00075013 </v>
   <v>       0.00001203      -0.00000548      -0.00073938 </v>
   <v>      -0.00001355      -0.00000189      -0.00074966 </v>
   <v>      -0.00000380       0.00000957      -0.00074642 </v>
   <v>       0.00000453       0.00000869      -0.00074951 </v>
   <v>       0.00000525       0.00001919      -0.00074689 </v>
   <v>      -0.00000121       0.00001226      -0.00074853 </v>
   <v>      -0.00000073      -0.00000099      -0.00074809 </v>
   <v>      -0.00000464       0.00001312      -0.00074506 </v>
   <v>      -0.00000867       0.00003103      -0.00075404 </v>
   <v>      -0.00000212       0.00001415      -0.00073469 </v>
   <v>      -0.00001114      -0.00000562      -0.00081810 </v>
   <v>      -0.00001089      -0.00001057      -0.00075227 </v>
   <v>       0.00001109      -0.00001294      -0.00073847 </v>
   <v>      -0.00000566       0.00000199      -0.00074445 </v>
   <v>       0.00000199      -0.00000830      -0.00040667 </v>
   <v>      -0.00001030      -0.00000322      -0.00041230 </v>
   <v>      -0.00000613      -0.00000932      -0.00042522 </v>
   <v>       0.00000752      -0.00001000      -0.00042541 </v>
   <v>       0.00001139      -0.00000398      -0.00042088 </v>
   <v>       0.00000720      -0.00000291      -0.00042412 </v>
   <v>      -0.00001061      -0.00000331      -0.00042806 </v>
   <v>      -0.00001090      -0.00000175      -0.00042394 </v>
   <v>      -0.00000063      -0.00000072      -0.00043025 </v>
   <v>       0.00001452      -0.00000142      -0.00042435 </v>
   <v>       0.00000738       0.00000314      -0.00042182 </v>
   <v>      -0.00000083       0.00000285      -0.00042321 </v>
   <v>      -0.00000832       0.00000461      -0.00042325 </v>
   <v>      -0.00000531       0.00001060      -0.00042467 </v>
   <v>       0.00000636       0.00001198      -0.00042511 </v>
   <v>       0.00000182       0.00000596      -0.00042501 </v>
   <v>       0.00000222      -0.00000247      -0.00042302 </v>
   <v>      -0.00000421      -0.00000195      -0.00041824 </v>
   <v>      -0.00000367       0.00000554      -0.00042690 </v>
   <v>       0.00000262       0.00001040      -0.00042044 </v>
   <v>      -0.00000859       0.00000362      -0.00040779 </v>
   <v>      -0.00000892      -0.00000544      -0.00042959 </v>
   <v>       0.00000000      -0.00000958      -0.00042344 </v>
   <v>       0.00000313      -0.00000605      -0.00042725 </v>
   <v>       0.00000305       0.00000345      -0.00042106 </v>
  </varray>
  <varray name="stress" >
   <v>      -0.31203089       0.00568664       0.02319819 </v>
   <v>       0.00568687      -0.31202507       0.00010033 </v>
   <v>       0.02319808       0.00010010      -0.26616475 </v>
  </varray>
  <energy>
   <i name="e_fr_energy">  -1214.42626742 </i>
   <i name="e_wo_entrp">  -1214.42626742 </i>
   <i name="e_0_energy">      0.00000000 </i>
  </energy>
  <time name="totalsc">********60053.32</time>
  <eigenvalues>
   <array>
    <dimension dim="1">band</dimension>
    <dimension dim="2">kpoint</dimension>
    <dimension dim="3">spin</dimension>
    <field>eigene</field>
    <field>occ</field>
    <set>
     <set comment="spin 1">
      <set comment="kpoint 1">
       <r>  -35.2377    1.0000 </r>
       <r>  -35.2372    1.0000 </r>
       <r>  -35.2372    1.0000 </r>
       <r>  -35.2372    1.0000 </r>
       <r>  -35.2371    1.0000 </r>
       <r>  -35.2371    1.0000 </r>
       <r>  -35.2371    1.0000 </r>
       <r>  -35.2371    1.0000 </r>
       <r>  -35.2371    1.0000 </r>
       <r>  -35.2371    1.0000 </r>
       <r>  -35.2370    1.0000 </r>
       <r>  -35.2370    1.0000 </r>
       <r>  -35.2275    1.0000 </r>
       <r>  -35.2271    1.0000 </r>
       <r>  -35.2271    1.0000 </r>
       <r>  -35.2270    1.0000 </r>
       <r>  -35.2270    1.0000 </r>
       <r>  -35.2270    1.0000 </r>
       <r>  -35.2270    1.0000 </r>
       <r>  -35.2270    1.0000 </r>
       <r>  -35.2270    1.0000 </r>
       <r>  -35.2270    1.0000 </r>
       <r>  -35.2270    1.0000 </r>
       <r>  -35.2269    1.0000 </r>
       <r>  -35.1508    1.0000 </r>
       <r>  -35.1505    1.0000 </r>
       <r>  -35.1505    1.0000 </r>
       <r>  -35.1504    1.0000 </r>
       <r>  -35.1504    1.0000 </r>
       <r>  -35.1504    1.0000 </r>
       <r>  -35.1504    1.0000 </r>
       <r>  -35.1504    1.0000 </r>
       <r>  -35.1504    1.0000 </r>
       <r>  -35.1504    1.0000 </r>
       <r>  -35.1502    1.0000 </r>
       <r>  -35.1502    1.0000 </r>
       <r>  -35.1084    1.0000 </r>
       <r>  -35.1084    1.0000 </r>
       <r>  -35.0768    1.0000 </r>
       <r>  -35.0767    1.0000 </r>
       <r>  -35.0767    1.0000 </r>
       <r>  -35.0767    1.0000 </r>
       <r>  -35.0767    1.0000 </r>
       <r>  -35.0766    1.0000 </r>
       <r>  -35.0766    1.0000 </r>
       <r>  -35.0766    1.0000 </r>
       <r>  -35.0766    1.0000 </r>
       <r>  -35.0766    1.0000 </r>
       <r>  -35.0766    1.0000 </r>
       <r>  -35.0763    1.0000 </r>
       <r>  -35.0349    1.0000 </r>
       <r>  -35.0349    1.0000 </r>
       <r>  -35.0349    1.0000 </r>
       <r>  -35.0348    1.0000 </r>
       <r>  -35.0348    1.0000 </r>
       <r>  -35.0348    1.0000 </r>
       <r>  -35.0348    1.0000 </r>
       <r>  -35.0348    1.0000 </r>
       <r>  -35.0348    1.0000 </r>
       <r>  -35.0348    1.0000 </r>
       <r>  -35.0347    1.0000 </r>
       <r>  -35.0346    1.0000 </r>
       <r>  -35.0300    1.0000 </r>
       <r>  -35.0299    1.0000 </r>
       <r>  -35.0299    1.0000 </r>
       <r>  -35.0298    1.0000 </r>
       <r>  -35.0298    1.0000 </r>
       <r>  -35.0298    1.0000 </r>
       <r>  -35.0298    1.0000 </r>
       <r>  -35.0298    1.0000 </r>
       <r>  -35.0298    1.0000 </r>
       <r>  -35.0298    1.0000 </r>
       <r>  -35.0298    1.0000 </r>
       <r>  -35.0295    1.0000 </r>
       <r>  -35.0250    1.0000 </r>
       <r>  -35.0249    1.0000 </r>
       <r>  -35.0249    1.0000 </r>
       <r>  -35.0249    1.0000 </r>
       <r>  -35.0249    1.0000 </r>
       <r>  -35.0249    1.0000 </r>
       <r>  -35.0249    1.0000 </r>
       <r>  -35.0249    1.0000 </r>
       <r>  -35.0249    1.0000 </r>
       <r>  -35.0249    1.0000 </r>
       <r>  -35.0247    1.0000 </r>
       <r>  -35.0246    1.0000 </r>
       <r>  -35.0090    1.0000 </r>
       <r>  -35.0089    1.0000 </r>
       <r>  -35.0089    1.0000 </r>
       <r>  -35.0089    1.0000 </r>
       <r>  -35.0089    1.0000 </r>
       <r>  -35.0089    1.0000 </r>
       <r>  -35.0089    1.0000 </r>
       <r>  -35.0089    1.0000 </r>
       <r>  -35.0089    1.0000 </r>
       <r>  -35.0088    1.0000 </r>
       <r>  -35.0087    1.0000 </r>
       <r>  -35.0085    1.0000 </r>
       <r>  -34.9884    1.0000 </r>
       <r>  -34.9883    1.0000 </r>
       <r>  -34.9883    1.0000 </r>
       <r>  -34.9882    1.0000 </r>
       <r>  -34.9882    1.0000 </r>
       <r>  -34.9882    1.0000 </r>
       <r>  -34.9882    1.0000 </r>
       <r>  -34.9882    1.0000 </r>
       <r>  -34.9882    1.0000 </r>
       <r>  -34.9882    1.0000 </r>
       <r>  -34.9880    1.0000 </r>
       <r>  -34.9880    1.0000 </r>
       <r>  -34.9537    1.0000 </r>
       <r>  -34.9537    1.0000 </r>
       <r>  -34.9536    1.0000 </r>
       <r>  -34.9535    1.0000 </r>
       <r>  -34.9535    1.0000 </r>
       <r>  -34.9535    1.0000 </r>
       <r>  -34.9535    1.0000 </r>
       <r>  -34.9535    1.0000 </r>
       <r>  -34.9535    1.0000 </r>
       <r>  -34.9535    1.0000 </r>
       <r>  -34.9534    1.0000 </r>
       <r>  -34.9532    1.0000 </r>
       <r>  -34.9231    1.0000 </r>
       <r>  -34.9231    1.0000 </r>
       <r>  -34.9229    1.0000 </r>
       <r>  -34.9229    1.0000 </r>
       <r>  -34.9229    1.0000 </r>
       <r>  -34.9229    1.0000 </r>
       <r>  -34.9229    1.0000 </r>
       <r>  -34.9229    1.0000 </r>
       <r>  -34.9228    1.0000 </r>
       <r>  -34.9228    1.0000 </r>
       <r>  -34.9228    1.0000 </r>
       <r>  -34.9225    1.0000 </r>
       <r>  -34.8652    1.0000 </r>
       <r>  -34.8651    1.0000 </r>
       <r>  -34.8650    1.0000 </r>
       <r>  -34.8650    1.0000 </r>
       <r>  -34.8650    1.0000 </r>
       <r>  -34.8650    1.0000 </r>
       <r>  -34.8650    1.0000 </r>
       <r>  -34.8650    1.0000 </r>
       <r>  -34.8650    1.0000 </r>
       <r>  -34.8650    1.0000 </r>
       <r>  -34.8649    1.0000 </r>
       <r>  -34.8649    1.0000 </r>
       <r>  -34.8289    1.0000 </r>
       <r>  -34.8289    1.0000 </r>
       <r>  -34.8289    1.0000 </r>
       <r>  -34.8289    1.0000 </r>
       <r>  -14.6100    1.0000 </r>
       <r>  -14.4297    1.0000 </r>
       <r>  -14.0017    1.0000 </r>
       <r>  -14.0003    1.0000 </r>
       <r>  -14.0002    1.0000 </r>
       <r>  -14.0002    1.0000 </r>
       <r>  -14.0002    1.0000 </r>
       <r>  -14.0002    1.0000 </r>
       <r>  -13.8280    1.0000 </r>
       <r>  -13.8262    1.0000 </r>
       <r>  -13.8262    1.0000 </r>
       <r>  -13.8262    1.0000 </r>
       <r>  -13.8261    1.0000 </r>
       <r>  -13.8261    1.0000 </r>
       <r>  -13.2632    1.0000 </r>
       <r>  -13.0484    1.0000 </r>
       <r>  -13.0472    1.0000 </r>
       <r>  -13.0472    1.0000 </r>
       <r>  -13.0472    1.0000 </r>
       <r>  -13.0472    1.0000 </r>
       <r>  -13.0471    1.0000 </r>
       <r>  -12.9916    1.0000 </r>
       <r>  -12.9910    1.0000 </r>
       <r>  -12.9910    1.0000 </r>
       <r>  -12.9910    1.0000 </r>
       <r>  -12.9909    1.0000 </r>
       <r>  -12.9907    1.0000 </r>
       <r>  -12.9808    1.0000 </r>
       <r>  -12.9064    1.0000 </r>
       <r>  -12.9046    1.0000 </r>
       <r>  -12.9046    1.0000 </r>
       <r>  -12.9045    1.0000 </r>
       <r>  -12.9045    1.0000 </r>
       <r>  -12.9044    1.0000 </r>
       <r>  -12.7621    1.0000 </r>
       <r>  -12.7610    1.0000 </r>
       <r>  -12.7610    1.0000 </r>
       <r>  -12.7610    1.0000 </r>
       <r>  -12.7610    1.0000 </r>
       <r>  -12.7609    1.0000 </r>
       <r>  -12.7583    1.0000 </r>
       <r>  -12.7581    1.0000 </r>
       <r>  -12.7581    1.0000 </r>
       <r>  -12.7581    1.0000 </r>
       <r>  -12.7580    1.0000 </r>
       <r>  -12.7578    1.0000 </r>
       <r>  -12.6442    1.0000 </r>
       <r>  -12.6423    1.0000 </r>
       <r>  -12.6423    1.0000 </r>
       <r>  -12.6423    1.0000 </r>
       <r>  -12.6422    1.0000 </r>
       <r>  -12.6422    1.0000 </r>
       <r>  -12.5609    1.0000 </r>
       <r>  -12.5598    1.0000 </r>
       <r>  -12.5598    1.0000 </r>
       <r>  -12.5597    1.0000 </r>
       <r>  -12.5597    1.0000 </r>
       <r>  -12.5596    1.0000 </r>
       <r>  -12.4496    1.0000 </r>
       <r>  -12.4483    1.0000 </r>
       <r>  -12.4483    1.0000 </r>
       <r>  -12.4483    1.0000 </r>
       <r>  -12.4482    1.0000 </r>
       <r>  -12.4481    1.0000 </r>
       <r>  -12.4167    1.0000 </r>
       <r>  -12.4162    1.0000 </r>
       <r>  -12.4162    1.0000 </r>
       <r>  -12.4162    1.0000 </r>
       <r>  -12.4161    1.0000 </r>
       <r>  -12.4161    1.0000 </r>
       <r>  -12.3493    1.0000 </r>
       <r>  -12.3488    1.0000 </r>
       <r>  -12.3487    1.0000 </r>
       <r>  -12.3487    1.0000 </r>
       <r>  -12.3487    1.0000 </r>
       <r>  -12.3487    1.0000 </r>
       <r>  -12.2935    1.0000 </r>
       <r>  -12.2929    1.0000 </r>
       <r>  -12.2929    1.0000 </r>
       <r>  -12.2929    1.0000 </r>
       <r>  -12.2928    1.0000 </r>
       <r>  -12.2928    1.0000 </r>
       <r>  -12.2293    1.0000 </r>
       <r>  -12.2272    1.0000 </r>
       <r>  -12.2272    1.0000 </r>
       <r>  -12.2272    1.0000 </r>
       <r>  -12.2271    1.0000 </r>
       <r>  -12.2270    1.0000 </r>
       <r>  -12.2042    1.0000 </r>
       <r>  -12.2024    1.0000 </r>
       <r>  -12.2023    1.0000 </r>
       <r>  -12.2023    1.0000 </r>
       <r>  -12.2023    1.0000 </r>
       <r>  -12.2022    1.0000 </r>
       <r>  -12.1780    1.0000 </r>
       <r>  -12.1774    1.0000 </r>
       <r>  -12.1774    1.0000 </r>
       <r>  -12.1774    1.0000 </r>
       <r>  -12.1774    1.0000 </r>
       <r>  -12.1773    1.0000 </r>
       <r>   -6.4332    1.0000 </r>
       <r>   -6.1424    1.0000 </r>
       <r>   -6.1422    1.0000 </r>
       <r>   -6.1420    1.0000 </r>
       <r>   -6.1417    1.0000 </r>
       <r>   -6.1417    1.0000 </r>
       <r>   -6.1416    1.0000 </r>
       <r>   -5.9361    1.0000 </r>
       <r>   -5.9359    1.0000 </r>
       <r>   -5.9356    1.0000 </r>
       <r>   -5.9352    1.0000 </r>
       <r>   -5.9352    1.0000 </r>
       <r>   -5.9351    1.0000 </r>
       <r>   -5.8615    1.0000 </r>
       <r>   -5.8601    1.0000 </r>
       <r>   -5.8600    1.0000 </r>
       <r>   -5.8600    1.0000 </r>
       <r>   -5.8600    1.0000 </r>
       <r>   -5.8600    1.0000 </r>
       <r>   -5.8119    1.0000 </r>
       <r>   -5.8116    1.0000 </r>
       <r>   -5.8115    1.0000 </r>
       <r>   -5.8115    1.0000 </r>
       <r>   -5.8114    1.0000 </r>
       <r>   -5.8114    1.0000 </r>
       <r>   -5.8111    1.0000 </r>
       <r>   -5.6772    1.0000 </r>
       <r>   -5.6759    1.0000 </r>
       <r>   -5.6754    1.0000 </r>
       <r>   -5.6753    1.0000 </r>
       <r>   -5.6753    1.0000 </r>
       <r>   -5.6751    1.0000 </r>
       <r>   -5.6572    1.0000 </r>
       <r>   -5.6561    1.0000 </r>
       <r>   -5.6555    1.0000 </r>
       <r>   -5.6555    1.0000 </r>
       <r>   -5.6555    1.0000 </r>
       <r>   -5.6553    1.0000 </r>
       <r>   -5.6542    1.0000 </r>
       <r>   -5.6532    1.0000 </r>
       <r>   -5.6532    1.0000 </r>
       <r>   -5.6530    1.0000 </r>
       <r>   -5.6530    1.0000 </r>
       <r>   -5.6530    1.0000 </r>
       <r>   -5.6225    1.0000 </r>
       <r>   -5.6221    1.0000 </r>
       <r>   -5.6221    1.0000 </r>
       <r>   -5.6221    1.0000 </r>
       <r>   -5.6220    1.0000 </r>
       <r>   -5.6220    1.0000 </r>
       <r>   -5.4076    1.0000 </r>
       <r>   -5.4068    1.0000 </r>
       <r>   -5.4067    1.0000 </r>
       <r>   -5.4062    1.0000 </r>
       <r>   -5.4062    1.0000 </r>
       <r>   -5.4062    1.0000 </r>
       <r>   -5.2889    1.0000 </r>
       <r>   -5.2869    1.0000 </r>
       <r>   -5.2868    1.0000 </r>
       <r>   -5.2868    1.0000 </r>
       <r>   -5.2868    1.0000 </r>
       <r>   -5.2867    1.0000 </r>
       <r>   -5.1822    1.0000 </r>
       <r>   -5.1820    1.0000 </r>
       <r>   -5.1818    1.0000 </r>
       <r>   -5.1817    1.0000 </r>
       <r>   -5.1817    1.0000 </r>
       <r>   -5.1817    1.0000 </r>
       <r>   -4.9669    1.0000 </r>
       <r>   -4.9668    1.0000 </r>
       <r>   -4.9666    1.0000 </r>
       <r>   -4.9665    1.0000 </r>
       <r>   -4.9664    1.0000 </r>
       <r>   -4.9662    1.0000 </r>
       <r>   -4.6893    1.0000 </r>
       <r>   -4.6890    1.0000 </r>
       <r>   -4.6884    1.0000 </r>
       <r>   -4.6882    1.0000 </r>
       <r>   -4.6882    1.0000 </r>
       <r>   -4.6881    1.0000 </r>
       <r>   -4.5932    1.0000 </r>
       <r>   -4.5931    1.0000 </r>
       <r>   -4.5926    1.0000 </r>
       <r>   -4.5924    1.0000 </r>
       <r>   -4.5924    1.0000 </r>
       <r>   -4.5922    1.0000 </r>
       <r>   -4.4867    1.0000 </r>
       <r>   -4.4856    1.0000 </r>
       <r>   -4.4855    1.0000 </r>
       <r>   -4.4855    1.0000 </r>
       <r>   -4.4854    1.0000 </r>
       <r>   -4.4854    1.0000 </r>
       <r>   -4.4834    1.0000 </r>
       <r>   -4.4830    1.0000 </r>
       <r>   -4.4829    1.0000 </r>
       <r>   -4.4828    1.0000 </r>
       <r>   -4.4827    1.0000 </r>
       <r>   -4.4823    1.0000 </r>
       <r>   -4.2162    1.0000 </r>
       <r>   -4.2158    1.0000 </r>
       <r>   -4.2155    1.0000 </r>
       <r>   -4.2155    1.0000 </r>
       <r>   -4.2155    1.0000 </r>
       <r>   -4.2154    1.0000 </r>
       <r>   -4.1710    1.0000 </r>
       <r>   -4.1702    1.0000 </r>
       <r>   -4.1701    1.0000 </r>
       <r>   -4.1698    1.0000 </r>
       <r>   -4.1698    1.0000 </r>
       <r>   -4.1694    1.0000 </r>
       <r>   -4.1154    1.0000 </r>
       <r>   -4.1144    1.0000 </r>
       <r>   -4.1144    1.0000 </r>
       <r>   -4.1143    1.0000 </r>
       <r>   -4.1142    1.0000 </r>
       <r>   -4.1141    1.0000 </r>
       <r>   -3.9839    1.0000 </r>
       <r>   -3.9835    1.0000 </r>
       <r>   -3.9833    1.0000 </r>
       <r>   -3.9833    1.0000 </r>
       <r>   -3.9832    1.0000 </r>
       <r>   -3.9831    1.0000 </r>
       <r>   -3.9763    1.0000 </r>
       <r>   -3.9763    1.0000 </r>
       <r>   -3.9754    1.0000 </r>
       <r>   -3.9752    1.0000 </r>
       <r>   -3.9752    1.0000 </r>
       <r>   -3.9751    1.0000 </r>
       <r>   -3.8793    1.0000 </r>
       <r>   -3.8788    1.0000 </r>
       <r>   -3.8780    1.0000 </r>
       <r>   -3.8778    1.0000 </r>
       <r>   -3.8777    1.0000 </r>
       <r>   -3.8775    1.0000 </r>
       <r>   -3.8001    1.0000 </r>
       <r>   -3.7999    1.0000 </r>
       <r>   -3.7998    1.0000 </r>
       <r>   -3.7996    1.0000 </r>
       <r>   -3.7995    1.0000 </r>
       <r>   -3.7992    1.0000 </r>
       <r>   -3.7560    1.0000 </r>
       <r>   -3.7559    1.0000 </r>
       <r>   -3.7558    1.0000 </r>
       <r>   -3.7557    1.0000 </r>
       <r>   -3.7555    1.0000 </r>
       <r>   -3.7552    1.0000 </r>
       <r>   -3.5946    1.0000 </r>
       <r>   -3.5941    1.0000 </r>
       <r>   -3.5938    1.0000 </r>
       <r>   -3.5937    1.0000 </r>
       <r>   -3.5936    1.0000 </r>
       <r>   -3.5930    1.0000 </r>
       <r>   -3.4220    1.0000 </r>
       <r>   -3.4215    1.0000 </r>
       <r>   -3.4211    1.0000 </r>
       <r>   -3.4210    1.0000 </r>
       <r>   -3.4210    1.0000 </r>
       <r>   -3.4207    1.0000 </r>
       <r>   -3.3937    1.0000 </r>
       <r>   -3.3931    1.0000 </r>
       <r>   -3.3923    1.0000 </r>
       <r>   -3.3922    1.0000 </r>
       <r>   -3.3922    1.0000 </r>
       <r>   -3.3922    1.0000 </r>
       <r>   -3.3891    1.0000 </r>
       <r>   -3.3890    1.0000 </r>
       <r>   -3.3889    1.0000 </r>
       <r>   -3.3889    1.0000 </r>
       <r>   -3.3888    1.0000 </r>
       <r>   -3.3888    1.0000 </r>
       <r>   -3.3445    1.0000 </r>
       <r>   -3.3438    1.0000 </r>
       <r>   -3.3430    1.0000 </r>
       <r>   -3.3429    1.0000 </r>
       <r>   -3.3429    1.0000 </r>
       <r>   -3.3429    1.0000 </r>
       <r>   -3.3345    1.0000 </r>
       <r>   -3.3340    1.0000 </r>
       <r>   -3.3338    1.0000 </r>
       <r>   -3.3337    1.0000 </r>
       <r>   -3.3337    1.0000 </r>
       <r>   -3.3336    1.0000 </r>
       <r>   -3.0595    1.0000 </r>
       <r>   -3.0595    1.0000 </r>
       <r>   -3.0589    1.0000 </r>
       <r>   -3.0588    1.0000 </r>
       <r>   -3.0587    1.0000 </r>
       <r>   -3.0584    1.0000 </r>
       <r>   -2.9204    1.0000 </r>
       <r>   -2.9201    1.0000 </r>
       <r>   -2.9197    1.0000 </r>
       <r>   -2.9197    1.0000 </r>
       <r>   -2.9196    1.0000 </r>
       <r>   -2.9196    1.0000 </r>
       <r>   -2.9067    1.0000 </r>
       <r>   -2.9066    1.0000 </r>
       <r>   -2.8990    1.0000 </r>
       <r>   -2.8989    1.0000 </r>
       <r>   -2.7570    1.0000 </r>
       <r>   -2.5646    1.0000 </r>
       <r>   -2.5641    1.0000 </r>
       <r>   -2.5634    1.0000 </r>
       <r>   -2.5633    1.0000 </r>
       <r>   -2.5632    1.0000 </r>
       <r>   -2.5629    1.0000 </r>
       <r>   -2.5618    1.0000 </r>
       <r>   -2.5616    1.0000 </r>
       <r>   -2.5614    1.0000 </r>
       <r>   -2.5613    1.0000 </r>
       <r>   -2.5613    1.0000 </r>
       <r>   -2.5608    1.0000 </r>
       <r>   -2.5202    1.0000 </r>
       <r>   -2.5192    1.0000 </r>
       <r>   -2.5188    1.0000 </r>
       <r>   -2.5187    1.0000 </r>
       <r>   -2.5187    1.0000 </r>
       <r>   -2.5187    1.0000 </r>
       <r>   -2.4797    1.0000 </r>
       <r>   -2.4787    1.0000 </r>
       <r>   -2.4781    1.0000 </r>
       <r>   -2.4780    1.0000 </r>
       <r>   -2.4780    1.0000 </r>
       <r>   -2.4779    1.0000 </r>
       <r>   -2.3805    1.0000 </r>
       <r>   -2.3805    1.0000 </r>
       <r>   -2.3805    1.0000 </r>
       <r>   -2.3804    1.0000 </r>
       <r>   -2.3803    1.0000 </r>
       <r>   -2.3794    1.0000 </r>
       <r>   -2.2948    1.0000 </r>
[...]
       <r>   -23.0190     0.0000   300.0000 </r>
       <r>   -22.8786     0.0000   300.0000 </r>
       <r>   -22.7383     0.0000   300.0000 </r>
       <r>   -22.5980     0.0000   300.0000 </r>
       <r>   -22.4577     0.0000   300.0000 </r>
       <r>   -22.3173     0.0000   300.0000 </r>
       <r>   -22.1770     0.0000   300.0000 </r>
       <r>   -22.0367     0.0000   300.0000 </r>
       <r>   -21.8963     0.0000   300.0000 </r>
       <r>   -21.7560     0.0000   300.0000 </r>
       <r>   -21.6157     0.0000   300.0000 </r>
       <r>   -21.4753     0.0000   300.0000 </r>
       <r>   -21.3350     0.0000   300.0000 </r>
       <r>   -21.1947     0.0000   300.0000 </r>
       <r>   -21.0544     0.0000   300.0000 </r>
       <r>   -20.9140     0.0000   300.0000 </r>
       <r>   -20.7737     0.0000   300.0000 </r>
       <r>   -20.6334     0.0000   300.0000 </r>
       <r>   -20.4930     0.0000   300.0000 </r>
       <r>   -20.3527     0.0000   300.0000 </r>
       <r>   -20.2124     0.0000   300.0000 </r>
       <r>   -20.0720     0.0000   300.0000 </r>
       <r>   -19.9317     0.0000   300.0000 </r>
       <r>   -19.7914     0.0000   300.0000 </r>
       <r>   -19.6510     0.0000   300.0000 </r>
       <r>   -19.5107     0.0000   300.0000 </r>
       <r>   -19.3704     0.0000   300.0000 </r>
       <r>   -19.2301     0.0000   300.0000 </r>
       <r>   -19.0897     0.0000   300.0000 </r>
       <r>   -18.9494     0.0000   300.0000 </r>
       <r>   -18.8091     0.0000   300.0000 </r>
       <r>   -18.6687     0.0000   300.0000 </r>
       <r>   -18.5284     0.0000   300.0000 </r>
       <r>   -18.3881     0.0000   300.0000 </r>
       <r>   -18.2477     0.0000   300.0000 </r>
       <r>   -18.1074     0.0000   300.0000 </r>
       <r>   -17.9671     0.0000   300.0000 </r>
       <r>   -17.8268     0.0000   300.0000 </r>
       <r>   -17.6864     0.0000   300.0000 </r>
       <r>   -17.5461     0.0000   300.0000 </r>
       <r>   -17.4058     0.0000   300.0000 </r>
       <r>   -17.2654     0.0000   300.0000 </r>
       <r>   -17.1251     0.0000   300.0000 </r>
       <r>   -16.9848     0.0000   300.0000 </r>
       <r>   -16.8444     0.0000   300.0000 </r>
       <r>   -16.7041     0.0000   300.0000 </r>
       <r>   -16.5638     0.0000   300.0000 </r>
       <r>   -16.4234     0.0000   300.0000 </r>
       <r>   -16.2831     0.0000   300.0000 </r>
       <r>   -16.1428     0.0000   300.0000 </r>
       <r>   -16.0025     0.0000   300.0000 </r>
       <r>   -15.8621     0.0000   300.0000 </r>
       <r>   -15.7218     0.0000   300.0000 </r>
       <r>   -15.5815     0.0000   300.0000 </r>
       <r>   -15.4411     0.0000   300.0000 </r>
       <r>   -15.3008     0.0000   300.0000 </r>
       <r>   -15.1605     0.0000   300.0000 </r>
       <r>   -15.0201     0.0000   300.0000 </r>
       <r>   -14.8798     0.0000   300.0000 </r>
       <r>   -14.7395     0.0000   300.0000 </r>
       <r>   -14.5992     3.3400   300.4687 </r>
       <r>   -14.4588     1.7738   300.7489 </r>
       <r>   -14.3185     0.0000   304.0000 </r>
       <r>   -14.1782     0.0000   307.0000 </r>
       <r>   -14.0378     0.0000   310.0000 </r>
       <r>   -13.8975    21.3781   316.0000 </r>
       <r>   -13.7572    21.3781   319.0000 </r>
       <r>   -13.6168     0.6498   319.0912 </r>
       <r>   -13.4765     0.0000   325.0000 </r>
       <r>   -13.3362    21.3781   334.0000 </r>
       <r>   -13.1959    30.3831   338.2637 </r>
       <r>   -13.0555    12.4789   342.2512 </r>
       <r>   -12.9152    86.5950   358.6519 </r>
       <r>   -12.7749   107.6479   377.1063 </r>
       <r>   -12.6345    40.0840   388.6250 </r>
       <r>   -12.4942   164.3711   418.0663 </r>
       <r>   -12.3539   165.4161   446.7129 </r>
       <r>   -12.2135   153.5743   484.0511 </r>
       <r>   -12.0732    42.7562   500.0000 </r>
       <r>   -11.9329     0.0000   500.0000 </r>
       <r>   -11.7925     0.0000   500.0000 </r>
       <r>   -11.6522     0.0000   500.0000 </r>
       <r>   -11.5119     0.0000   500.0000 </r>
       <r>   -11.3716     0.0000   500.0000 </r>
       <r>   -11.2312     0.0000   500.0000 </r>
       <r>   -11.0909     0.0000   500.0000 </r>
       <r>   -10.9506     0.0000   500.0000 </r>
       <r>   -10.8102     0.0000   500.0000 </r>
       <r>   -10.6699     0.0000   500.0000 </r>
       <r>   -10.5296     0.0000   500.0000 </r>
       <r>   -10.3892     0.0000   500.0000 </r>
       <r>   -10.2489     0.0000   500.0000 </r>
       <r>   -10.1086     0.0000   500.0000 </r>
       <r>    -9.9683     0.0000   500.0000 </r>
       <r>    -9.8279     0.0000   500.0000 </r>
       <r>    -9.6876     0.0000   500.0000 </r>
       <r>    -9.5473     0.0000   500.0000 </r>
       <r>    -9.4069     0.0000   500.0000 </r>
       <r>    -9.2666     0.0000   500.0000 </r>
       <r>    -9.1263     0.0000   500.0000 </r>
       <r>    -8.9859     0.0000   500.0000 </r>
       <r>    -8.8456     0.0000   500.0000 </r>
       <r>    -8.7053     0.0000   500.0000 </r>
       <r>    -8.5649     0.0000   500.0000 </r>
       <r>    -8.4246     0.0000   500.0000 </r>
       <r>    -8.2843     0.0000   500.0000 </r>
       <r>    -8.1440     0.0000   500.0000 </r>
       <r>    -8.0036     0.0000   500.0000 </r>
       <r>    -7.8633     0.0000   500.0000 </r>
       <r>    -7.7230     0.0000   500.0000 </r>
       <r>    -7.5826     0.0000   500.0000 </r>
       <r>    -7.4423     0.0000   500.0000 </r>
       <r>    -7.3020     0.0000   500.0000 </r>
       <r>    -7.1616     0.0000   500.0000 </r>
       <r>    -7.0213     0.0000   500.0000 </r>
       <r>    -6.8810     0.0000   500.0000 </r>
       <r>    -6.7407     0.0000   500.0000 </r>
       <r>    -6.6003     0.0000   500.0000 </r>
       <r>    -6.4600     0.0003   500.0000 </r>
       <r>    -6.3197    10.6891   502.0000 </r>
       <r>    -6.1793    26.6476   505.7395 </r>
       <r>    -6.0390     0.0000   515.5000 </r>
       <r>    -5.8987    87.0595   527.7171 </r>
       <r>    -5.7583    89.0950   552.0027 </r>
       <r>    -5.6180   164.8093   578.1278 </r>
       <r>    -5.4777     0.0000   588.0000 </r>
       <r>    -5.3373   202.1358   619.3658 </r>
       <r>    -5.1970    74.9326   639.0153 </r>
       <r>    -5.0567     0.0000   642.0000 </r>
       <r>    -4.9164    33.4115   646.6887 </r>
       <r>    -4.7760     0.2325   651.0326 </r>
       <r>    -4.6357    40.1594   662.6356 </r>
       <r>    -4.4954    45.4242   673.8744 </r>
       <r>    -4.3550     4.1749   680.0859 </r>
       <r>    -4.2147   124.6608   711.9937 </r>
       <r>    -4.0744    64.1343   732.0000 </r>
       <r>    -3.9340   169.1795   761.7410 </r>
       <r>    -3.7937    17.1331   767.4043 </r>
       <r>    -3.6534    21.3781   792.0000 </r>
       <r>    -3.5131   117.7600   811.0253 </r>
       <r>    -3.3727   135.6153   838.0310 </r>
       <r>    -3.2324    73.5392   859.3198 </r>
       <r>    -3.0921    64.4333   873.0419 </r>
       <r>    -2.9517    42.7563   891.0000 </r>
       <r>    -2.8114    35.6302   902.0000 </r>
       <r>    -2.6711    42.7562   908.5000 </r>
       <r>    -2.5307    73.0459   918.7506 </r>
       <r>    -2.3904    87.1366   938.7279 </r>
       <r>    -2.2501   113.7849   957.4675 </r>
       <r>    -2.1097    95.7453   974.4360 </r>
       <r>    -1.9694   152.7478  1010.9352 </r>
       <r>    -1.8291    95.4571  1032.8955 </r>
       <r>    -1.6888    77.6553  1048.3974 </r>
       <r>    -1.5484    37.8603  1059.8130 </r>
       <r>    -1.4081    64.1343  1073.0000 </r>
       <r>    -1.2678    43.6095  1082.1197 </r>
       <r>    -1.1274    57.9581  1102.1333 </r>
       <r>    -0.9871   191.9836  1140.4411 </r>
       <r>    -0.8468    13.2122  1145.3541 </r>
       <r>    -0.7064    79.9130  1171.2142 </r>
       <r>    -0.5661    46.2046  1184.4839 </r>
       <r>    -0.4258    62.9459  1193.3332 </r>
       <r>    -0.2855    21.3781  1196.5000 </r>
       <r>    -0.1451     0.0000  1196.5000 </r>
       <r>    -0.0048     0.0006  1196.5001 </r>
       <r>     0.1355     0.0000  1199.5000 </r>
       <r>     0.2759     3.5630  1200.0000 </r>
       <r>     0.4162     0.0000  1200.0000 </r>
       <r>     0.5565     0.0000  1200.0000 </r>
       <r>     0.6969     0.0000  1200.0000 </r>
       <r>     0.8372     0.0000  1200.0000 </r>
       <r>     0.9775     0.0000  1200.0000 </r>
       <r>     1.1179     0.0000  1200.0000 </r>
       <r>     1.2582     0.0000  1200.0000 </r>
       <r>     1.3985     0.0000  1200.0000 </r>
       <r>     1.5388    31.7830  1204.4601 </r>
       <r>     1.6792    19.7438  1211.7707 </r>
       <r>     1.8195     2.8524  1221.4003 </r>
       <r>     1.9598    65.6448  1242.2120 </r>
       <r>     2.1002   128.9641  1269.0976 </r>
       <r>     2.2405   195.1215  1302.3815 </r>
       <r>     2.3808    81.6076  1325.4520 </r>
       <r>     2.5212   219.1806  1368.2577 </r>
       <r>     2.6615    52.5741  1397.8777 </r>
       <r>     2.8018   173.1195  1422.7939 </r>
       <r>     2.9421    32.0642  1436.9996 </r>
       <r>     3.0825     0.0000  1440.0000 </r>
       <r>     3.2228     0.0000  1440.0000 </r>
       <r>     3.3631     0.0000  1440.0000 </r>
       <r>     3.5035     0.0000  1440.0000 </r>
       <r>     3.6438     0.0000  1440.0000 </r>
       <r>     3.7841     0.0000  1440.0000 </r>
       <r>     3.9245     0.0000  1440.0000 </r>
       <r>     4.0648     0.0000  1440.0000 </r>
       <r>     4.2051     0.0000  1440.0000 </r>
       <r>     4.3455     0.0000  1440.0000 </r>
       <r>     4.4858     0.0000  1440.0000 </r>
       <r>     4.6261     0.0000  1440.0000 </r>
       <r>     4.7664     0.0000  1440.0000 </r>
       <r>     4.9068     0.0000  1440.0000 </r>
      </set>
     </set>
    </array>
   </total>
  </dos>
 </calculation>
 <structure name="finalpos" >
  <crystal>
   <varray name="basis" >
    <v>      15.65451448      -0.00000001       0.00000000 </v>
    <v>      -7.82725475      13.55720592       0.00000000 </v>
    <v>       0.00000000       0.00000000      26.00697779 </v>
   </varray>
   <i name="volume">   5519.49928921 </i>
   <varray name="rec_basis" >
    <v>       0.06387934       0.03688074       0.00000000 </v>
    <v>       0.00000000       0.07376151       0.00000000 </v>
    <v>       0.00000000       0.00000000       0.03845122 </v>
   </varray>
  </crystal>
  <varray name="positions" >
   <v>       0.06666667       0.13333333       0.17304109 </v>
   <v>       0.26666667       0.13333333       0.17304109 </v>
   <v>       0.46666667       0.13333333       0.17304109 </v>
   <v>       0.66666667       0.13333333       0.17304109 </v>
   <v>       0.86666667       0.13333333       0.17304109 </v>
   <v>       0.06666667       0.33333333       0.17304109 </v>
   <v>       0.26666667       0.33333333       0.17304109 </v>
   <v>       0.46666667       0.33333333       0.17304109 </v>
   <v>       0.66666667       0.33333333       0.17304109 </v>
   <v>       0.86666667       0.33333333       0.17304109 </v>
   <v>       0.06666667       0.53333333       0.17304109 </v>
   <v>       0.26666667       0.53333333       0.17304109 </v>
   <v>       0.46666667       0.53333333       0.17304109 </v>
   <v>       0.66666667       0.53333333       0.17304109 </v>
   <v>       0.86666667       0.53333333       0.17304109 </v>
   <v>       0.06666667       0.73333333       0.17304109 </v>
   <v>       0.26666667       0.73333333       0.17304109 </v>
   <v>       0.46666667       0.73333333       0.17304109 </v>
   <v>       0.66666667       0.73333333       0.17304109 </v>
   <v>       0.86666667       0.73333333       0.17304109 </v>
   <v>       0.06666667       0.93333333       0.17304109 </v>
   <v>       0.26666667       0.93333333       0.17304109 </v>
   <v>       0.46666667       0.93333333       0.17304109 </v>
   <v>       0.66666667       0.93333333       0.17304109 </v>
   <v>       0.86666667       0.93333333       0.17304109 </v>
   <v>       0.13333333       0.06666667       0.40532935 </v>
   <v>       0.33333333       0.06666667       0.40532935 </v>
   <v>       0.53333333       0.06666667       0.40532935 </v>
   <v>       0.73333333       0.06666667       0.40532935 </v>
   <v>       0.93333333       0.06666667       0.40532935 </v>
   <v>       0.13333333       0.26666667       0.40532935 </v>
   <v>       0.33333333       0.26666667       0.40532935 </v>
   <v>       0.53333333       0.26666667       0.40532935 </v>
   <v>       0.73333333       0.26666667       0.40532935 </v>
   <v>       0.93333333       0.26666667       0.40532935 </v>
   <v>       0.13333333       0.46666667       0.40532935 </v>
   <v>       0.33333333       0.46666667       0.40532935 </v>
   <v>       0.53333333       0.46666667       0.40532935 </v>
   <v>       0.73333333       0.46666667       0.40532935 </v>
   <v>       0.93333333       0.46666667       0.40532935 </v>
   <v>       0.13333333       0.66666667       0.40532935 </v>
   <v>       0.33333333       0.66666667       0.40532935 </v>
   <v>       0.53333333       0.66666667       0.40532935 </v>
   <v>       0.73333333       0.66666667       0.40532935 </v>
   <v>       0.93333333       0.66666667       0.40532935 </v>
   <v>       0.13333333       0.86666667       0.40532935 </v>
   <v>       0.33333333       0.86666667       0.40532935 </v>
   <v>       0.53333333       0.86666667       0.40532935 </v>
   <v>       0.73333333       0.86666667       0.40532935 </v>
   <v>       0.93333333       0.86666667       0.40532935 </v>
   <v>       0.13366277       0.06666667       0.11351605 </v>
   <v>       0.33333333       0.06666667       0.11318662 </v>
   <v>       0.53333333       0.06666667       0.11318662 </v>
   <v>       0.73333333       0.06666667       0.11318662 </v>
   <v>       0.93333333       0.06666667       0.11318662 </v>
   <v>       0.13333333       0.26666667       0.11318662 </v>
   <v>       0.33333333       0.26666667       0.11318662 </v>
   <v>       0.53333333       0.26666667       0.11318662 </v>
   <v>       0.73333333       0.26666667       0.11318662 </v>
   <v>       0.93333333       0.26666667       0.11318662 </v>
   <v>       0.13333333       0.46666667       0.11318662 </v>
   <v>       0.33333333       0.46666667       0.11318662 </v>
   <v>       0.53333333       0.46666667       0.11318662 </v>
   <v>       0.73333333       0.46666667       0.11318662 </v>
   <v>       0.93333333       0.46666667       0.11318662 </v>
   <v>       0.13333333       0.66666667       0.11318662 </v>
   <v>       0.33333333       0.66666667       0.11318662 </v>
   <v>       0.53333333       0.66666667       0.11318662 </v>
   <v>       0.73333333       0.66666667       0.11318662 </v>
   <v>       0.93333333       0.66666667       0.11318662 </v>
   <v>       0.13333333       0.86666667       0.11318662 </v>
   <v>       0.33333333       0.86666667       0.11318662 </v>
   <v>       0.53333333       0.86666667       0.11318662 </v>
   <v>       0.73333333       0.86666667       0.11318662 </v>
   <v>       0.93333333       0.86666667       0.11318662 </v>
   <v>       0.13333333       0.06666667       0.23301500 </v>
   <v>       0.33333333       0.06666667       0.23301500 </v>
   <v>       0.53333333       0.06666667       0.23301500 </v>
   <v>       0.73333333       0.06666667       0.23301500 </v>
   <v>       0.93333333       0.06666667       0.23301500 </v>
   <v>       0.13333333       0.26666667       0.23301500 </v>
   <v>       0.33333333       0.26666667       0.23301500 </v>
   <v>       0.53333333       0.26666667       0.23301500 </v>
   <v>       0.73333333       0.26666667       0.23301500 </v>
   <v>       0.93333333       0.26666667       0.23301500 </v>
   <v>       0.13333333       0.46666667       0.23301500 </v>
   <v>       0.33333333       0.46666667       0.23301500 </v>
   <v>       0.53333333       0.46666667       0.23301500 </v>
   <v>       0.73333333       0.46666667       0.23301500 </v>
   <v>       0.93333333       0.46666667       0.23301500 </v>
   <v>       0.13333333       0.66666667       0.23301500 </v>
   <v>       0.33333333       0.66666667       0.23301500 </v>
   <v>       0.53333333       0.66666667       0.23301500 </v>
   <v>       0.73333333       0.66666667       0.23301500 </v>
   <v>       0.93333333       0.66666667       0.23301500 </v>
   <v>       0.13333333       0.86666667       0.23301500 </v>
   <v>       0.33333333       0.86666667       0.23301500 </v>
   <v>       0.53333333       0.86666667       0.23301500 </v>
   <v>       0.73333333       0.86666667       0.23301500 </v>
   <v>       0.93333333       0.86666667       0.23301500 </v>
   <v>       0.06666667       0.13333333       0.34535543 </v>
   <v>       0.26666667       0.13333333       0.34535543 </v>
   <v>       0.46666667       0.13333333       0.34535543 </v>
   <v>       0.66666667       0.13333333       0.34535543 </v>
   <v>       0.86666667       0.13333333       0.34535543 </v>
   <v>       0.06666667       0.33333333       0.34535543 </v>
   <v>       0.26666667       0.33333333       0.34535543 </v>
   <v>       0.46666667       0.33333333       0.34535543 </v>
   <v>       0.66666667       0.33333333       0.34535543 </v>
   <v>       0.86666667       0.33333333       0.34535543 </v>
   <v>       0.06666667       0.53333333       0.34535543 </v>
   <v>       0.26666667       0.53333333       0.34535543 </v>
   <v>       0.46666667       0.53333333       0.34535543 </v>
   <v>       0.66666667       0.53333333       0.34535543 </v>
   <v>       0.86666667       0.53333333       0.34535543 </v>
   <v>       0.06666667       0.73333333       0.34535543 </v>
   <v>       0.26666667       0.73333333       0.34535543 </v>
   <v>       0.46666667       0.73333333       0.34535543 </v>
   <v>       0.66666667       0.73333333       0.34535543 </v>
   <v>       0.86666667       0.73333333       0.34535543 </v>
   <v>       0.06666667       0.93333333       0.34535543 </v>
   <v>       0.26666667       0.93333333       0.34535543 </v>
   <v>       0.46666667       0.93333333       0.34535543 </v>
   <v>       0.66666667       0.93333333       0.34535543 </v>
   <v>       0.86666667       0.93333333       0.34535543 </v>
   <v>       0.06666667       0.13333333       0.46518382 </v>
   <v>       0.26666667       0.13333333       0.46518382 </v>
   <v>       0.46666667       0.13333333       0.46518382 </v>
   <v>       0.66666667       0.13333333       0.46518382 </v>
   <v>       0.86666667       0.13333333       0.46518382 </v>
   <v>       0.06666667       0.33333333       0.46518382 </v>
   <v>       0.26666667       0.33333333       0.46518382 </v>
   <v>       0.46666667       0.33333333       0.46518382 </v>
   <v>       0.66666667       0.33333333       0.46518382 </v>
   <v>       0.86666667       0.33333333       0.46518382 </v>
   <v>       0.06666667       0.53333333       0.46518382 </v>
   <v>       0.26666667       0.53333333       0.46518382 </v>
   <v>       0.46666667       0.53333333       0.46518382 </v>
   <v>       0.66666667       0.53333333       0.46518382 </v>
   <v>       0.86666667       0.53333333       0.46518382 </v>
   <v>       0.06666667       0.73333333       0.46518382 </v>
   <v>       0.26666667       0.73333333       0.46518382 </v>
   <v>       0.46666667       0.73333333       0.46518382 </v>
   <v>       0.66666667       0.73333333       0.46518382 </v>
   <v>       0.86666667       0.73333333       0.46518382 </v>
   <v>       0.06666667       0.93333333       0.46518382 </v>
   <v>       0.26666667       0.93333333       0.46518382 </v>
   <v>       0.46666667       0.93333333       0.46518382 </v>
   <v>       0.66666667       0.93333333       0.46518382 </v>
   <v>       0.86666667       0.93333333       0.46518382 </v>
  </varray>
 </structure>
</modeling>
