<?xml version="1.0" encoding="ISO-8859-1"?>
<modeling>
 <generator>
  <i name="program" type="string">vasp </i>
  <i name="version" type="string">5.3.3  </i>
  <i name="subversion" type="string">18Dez12 (build Oct  3 2015 22:05:41) complex                          parallel </i>
  <i name="platform" type="string">BGQ </i>
  <i name="date" type="string">2018 02 12 </i>
  <i name="time" type="string">10:22:57 </i>
 </generator>
 <incar>
  <i type="string" name="SYSTEM"> ZrSiO4_U</i>
  <i type="int" name="ISTART">     1</i>
  <i type="string" name="PREC">accurate</i>
  <i type="string" name="ALGO"> Normal</i>
  <i type="int" name="NSIM">     1</i>
  <i type="logical" name="ADDGRID"> T  </i>
  <i type="int" name="ICHARG">     1</i>
  <i type="int" name="IBRION">    -1</i>
  <i name="EDIFF">      0.00000001</i>
  <i type="int" name="NSW">     0</i>
  <i type="int" name="ISIF">     2</i>
  <i name="ENCUT">    600.00000000</i>
  <i type="logical" name="LREAL"> F  </i>
  <i type="logical" name="LPLANE"> F  </i>
  <i type="int" name="ISMEAR">     0</i>
  <i name="SIGMA">      0.01000000</i>
  <i type="logical" name="LWAVE"> F  </i>
  <i type="logical" name="LCHARG"> F  </i>
 </incar>
 <kpoints>
  <generation param="Gamma">
   <v type="int" name="divisions">       2        2        1 </v>
   <v name="usershift">      0.00000000       0.00000000       0.00000000 </v>
   <v name="genvec1">      0.50000000       0.00000000       0.00000000 </v>
   <v name="genvec2">      0.00000000       0.50000000       0.00000000 </v>
   <v name="genvec3">      0.00000000       0.00000000       1.00000000 </v>
   <v name="shift">      0.00000000       0.00000000       0.00000000 </v>
  </generation>
  <varray name="kpointlist" >
   <v>       0.00000000       0.00000000       0.00000000 </v>
   <v>       0.50000000       0.00000000       0.00000000 </v>
   <v>       0.00000000       0.50000000       0.00000000 </v>
   <v>       0.50000000       0.50000000       0.00000000 </v>
  </varray>
  <varray name="weights" >
   <v>       0.25000000 </v>
   <v>       0.25000000 </v>
   <v>       0.25000000 </v>
   <v>       0.25000000 </v>
  </varray>
 </kpoints>
 <parameters>
  <separator name="general" >
   <i type="string" name="SYSTEM">ZrSiO4_U</i>
   <i type="logical" name="LCOMPAT"> F  </i>
  </separator>
  <separator name="electronic" >
   <i type="string" name="PREC">accura</i>
   <i name="ENMAX">    600.00000000</i>
   <i name="ENAUG">    491.96400000</i>
   <i name="EDIFF">      0.00000001</i>
   <i type="int" name="IALGO">    38</i>
   <i type="int" name="IWAVPR">    10</i>
   <i type="int" name="NBANDS">   720</i>
   <i name="NELECT">   1200.00000000</i>
   <i type="int" name="TURBO">     0</i>
   <i type="int" name="IRESTART">     0</i>
   <i type="int" name="NREBOOT">     0</i>
   <i type="int" name="NMIN">     0</i>
   <i name="EREF">      0.00000000</i>
   <separator name="electronic smearing" >
    <i type="int" name="ISMEAR">     0</i>
    <i name="SIGMA">      0.01000000</i>
    <i name="KSPACING">      0.50000000</i>
    <i type="logical" name="KGAMMA"> T  </i>
   </separator>
   <separator name="electronic projectors" >
    <i type="logical" name="LREAL"> F  </i>
    <v name="ROPT">      0.00000000      0.00000000</v>
    <i type="int" name="LMAXPAW">  -100</i>
    <i type="int" name="LMAXMIX">     2</i>
    <i type="logical" name="NLSPLINE"> F  </i>
   </separator>
   <separator name="electronic startup" >
    <i type="int" name="ISTART">     0</i>
    <i type="int" name="ICHARG">     1</i>
    <i type="int" name="INIWAV">     1</i>
   </separator>
   <separator name="electronic spin" >
    <i type="int" name="ISPIN">     1</i>
    <i type="logical" name="LNONCOLLINEAR"> F  </i>
    <v name="MAGMOM">      1.00000000      1.00000000      1.00000000      1.00000000      1.00000000      1.00000000      1.00000000      1.00000000      1.00000000      1.00000000      1.00000000      1.00000000      1.00000000      1.00000000      1.00000000      1.00000000      1.00000000      1.00000000      1.00000000      1.00000000
      1.00000000      1.00000000      1.00000000      1.00000000      1.00000000      1.00000000      1.00000000      1.00000000      1.00000000      1.00000000      1.00000000      1.00000000      1.00000000      1.00000000      1.00000000      1.00000000      1.00000000      1.00000000      1.00000000      1.00000000
      1.00000000      1.00000000      1.00000000      1.00000000      1.00000000      1.00000000      1.00000000      1.00000000      1.00000000      1.00000000      1.00000000      1.00000000      1.00000000      1.00000000      1.00000000      1.00000000      1.00000000      1.00000000      1.00000000      1.00000000
      1.00000000      1.00000000      1.00000000      1.00000000      1.00000000      1.00000000      1.00000000      1.00000000      1.00000000      1.00000000      1.00000000      1.00000000      1.00000000      1.00000000      1.00000000      1.00000000      1.00000000      1.00000000      1.00000000      1.00000000
      1.00000000      1.00000000      1.00000000      1.00000000      1.00000000      1.00000000      1.00000000      1.00000000      1.00000000      1.00000000      1.00000000      1.00000000      1.00000000      1.00000000      1.00000000      1.00000000      1.00000000      1.00000000      1.00000000      1.00000000
      1.00000000      1.00000000      1.00000000      1.00000000      1.00000000      1.00000000      1.00000000      1.00000000      1.00000000      1.00000000      1.00000000      1.00000000      1.00000000      1.00000000      1.00000000      1.00000000      1.00000000      1.00000000      1.00000000      1.00000000
      1.00000000      1.00000000      1.00000000      1.00000000      1.00000000      1.00000000      1.00000000      1.00000000      1.00000000      1.00000000      1.00000000      1.00000000      1.00000000      1.00000000      1.00000000      1.00000000      1.00000000      1.00000000      1.00000000      1.00000000
      1.00000000      1.00000000      1.00000000      1.00000000      1.00000000      1.00000000      1.00000000      1.00000000      1.00000000      1.00000000</v>
    <i name="NUPDOWN">     -1.00000000</i>
    <i type="logical" name="LSORBIT"> F  </i>
    <v name="SAXIS">      0.00000000      0.00000000      1.00000000</v>
    <i type="logical" name="LSPIRAL"> F  </i>
    <v name="QSPIRAL">      0.00000000      0.00000000      0.00000000</v>
    <i type="logical" name="LZEROZ"> F  </i>
   </separator>
   <separator name="electronic exchange-correlation" >
    <i type="logical" name="LASPH"> F  </i>
    <i type="logical" name="LMETAGGA"> F  </i>
   </separator>
   <separator name="electronic convergence" >
    <i type="int" name="NELM">    60</i>
    <i type="int" name="NELMDL">     0</i>
    <i type="int" name="NELMIN">     2</i>
    <i name="ENINI">    600.00000000</i>
    <separator name="electronic convergence detail" >
     <i type="logical" name="LDIAG"> T  </i>
     <i type="logical" name="LSUBROT"> T  </i>
     <i name="WEIMIN">      0.00000000</i>
     <i name="EBREAK">      0.00000000</i>
     <i name="DEPER">      0.30000000</i>
     <i type="int" name="NRMM">     4</i>
     <i name="TIME">      0.40000000</i>
    </separator>
   </separator>
   <separator name="electronic mixer" >
    <i name="AMIX">      0.40000000</i>
    <i name="BMIX">      1.00000000</i>
    <i name="AMIN">      0.10000000</i>
    <i name="AMIX_MAG">      1.60000000</i>
    <i name="BMIX_MAG">      1.00000000</i>
    <separator name="electronic mixer details" >
     <i type="int" name="IMIX">     4</i>
     <i type="int" name="MAXMIX">   -45</i>
     <i name="WC">    100.00000000</i>
     <i type="int" name="INIMIX">     1</i>
     <i type="int" name="MIXPRE">     1</i>
     <i type="int" name="MREMOVE">     5</i>
    </separator>
   </separator>
   <separator name="electronic dipolcorrection" >
    <i type="logical" name="LDIPOL"> F  </i>
    <i type="logical" name="LMONO"> F  </i>
    <i type="int" name="IDIPOL">     0</i>
    <i name="EPSILON">      1.00000000</i>
    <v name="DIPOL">   -100.00000000   -100.00000000   -100.00000000</v>
    <i name="EFIELD">      0.00000000</i>
   </separator>
  </separator>
  <separator name="grids" >
   <i type="int" name="NGX">   126</i>
   <i type="int" name="NGY">   126</i>
   <i type="int" name="NGZ">   210</i>
   <i type="int" name="NGXF">   252</i>
   <i type="int" name="NGYF">   252</i>
   <i type="int" name="NGZF">   420</i>
   <i type="logical" name="ADDGRID"> T  </i>
  </separator>
  <separator name="ionic" >
   <i type="int" name="NSW">     0</i>
   <i type="int" name="IBRION">    -1</i>
   <i type="int" name="ISIF">     2</i>
   <i name="PSTRESS">      0.00000000</i>
   <i name="EDIFFG">      0.00000010</i>
   <i type="int" name="NFREE">     0</i>
   <i name="POTIM">      0.50000000</i>
   <i name="SMASS">     -3.00000000</i>
   <i name="SCALEE">      1.00000000</i>
  </separator>
  <separator name="ionic md" >
   <i name="TEBEG">      0.00010000</i>
   <i name="TEEND">      0.00010000</i>
   <i type="int" name="NBLOCK">     1</i>
   <i type="int" name="KBLOCK">     1</i>
   <i type="int" name="NPACO">   256</i>
   <i name="APACO">     16.00000000</i>
  </separator>
  <separator name="symmetry" >
   <i type="int" name="ISYM">     2</i>
   <i name="SYMPREC">      0.00001000</i>
  </separator>
  <separator name="dos" >
   <i type="logical" name="LORBIT"> T  </i>
   <v name="RWIGS">     -1.00000000     -1.00000000</v>
   <i type="int" name="NEDOS">   301</i>
   <i name="EMIN">     10.00000000</i>
   <i name="EMAX">    -10.00000000</i>
   <i name="EFERMI">      0.00000000</i>
  </separator>
  <separator name="writing" >
   <i type="int" name="NWRITE">     2</i>
   <i type="logical" name="LWAVE"> F  </i>
   <i type="logical" name="LCHARG"> F  </i>
   <i type="logical" name="LPARD"> F  </i>
   <i type="logical" name="LVTOT"> F  </i>
   <i type="logical" name="LVHAR"> F  </i>
   <i type="logical" name="LELF"> F  </i>
   <i type="logical" name="LOPTICS"> F  </i>
   <v name="STM">      0.00000000      0.00000000      0.00000000      0.00000000      0.00000000      0.00000000      0.00000000</v>
  </separator>
  <separator name="performance" >
   <i type="int" name="NPAR">     8</i>
   <i type="int" name="NSIM">     1</i>
   <i type="int" name="NBLK">    -1</i>
   <i type="logical" name="LPLANE"> F  </i>
   <i type="logical" name="LSCALAPACK"> T  </i>
   <i type="logical" name="LSCAAWARE"> F  </i>
   <i type="logical" name="LSCALU"> F  </i>
   <i type="logical" name="LASYNC"> F  </i>
   <i type="logical" name="LORBITALREAL"> F  </i>
  </separator>
  <separator name="miscellaneous" >
   <i type="int" name="IDIOT">     3</i>
   <i type="logical" name="LMUSIC"> F  </i>
   <v name="POMASS">     95.94000000     32.06600000</v>
   <v name="DARWINR">      0.00000000      0.00000000</v>
   <v name="DARWINV">      1.00000000      1.00000000</v>
   <i type="logical" name="LCORR"> T  </i>
  </separator>
  <i type="logical" name="GGA_COMPAT"> T  </i>
  <i type="logical" name="LBERRY"> F  </i>
  <i type="int" name="ICORELEVEL">     0</i>
  <i type="logical" name="LDAU"> F  </i>
  <i type="int" name="I_CONSTRAINED_M">     0</i>
  <separator name="electronic exchange-correlation" >
   <i type="string" name="GGA">--</i>
   <i type="int" name="VOSKOWN">     0</i>
   <i type="logical" name="LHFCALC"> F  </i>
   <i type="string" name="PRECFOCK"></i>
   <i type="logical" name="LSYMGRAD"> F  </i>
   <i type="logical" name="LHFONE"> F  </i>
   <i type="logical" name="LRHFCALC"> F  </i>
   <i type="logical" name="LTHOMAS"> F  </i>
   <i type="logical" name="LMODELHF"> F  </i>
   <i name="ENCUT4O">     -1.00000000</i>
   <i type="int" name="EXXOEP">     0</i>
   <i type="int" name="FOURORBIT">     0</i>
   <i name="AEXX">      0.00000000</i>
   <i name="HFALPHA">      0.00000000</i>
   <i name="MCALPHA">      0.00000000</i>
   <i name="ALDAX">      1.00000000</i>
   <i name="AGGAX">      1.00000000</i>
   <i name="ALDAC">      1.00000000</i>
   <i name="AGGAC">      1.00000000</i>
   <i type="int" name="NKREDX">     1</i>
   <i type="int" name="NKREDY">     1</i>
   <i type="int" name="NKREDZ">     1</i>
   <i type="logical" name="SHIFTRED"> F  </i>
   <i type="logical" name="ODDONLY"> F  </i>
   <i type="logical" name="EVENONLY"> F  </i>
   <i type="int" name="LMAXFOCK">     0</i>
   <i type="int" name="NMAXFOCKAE">     0</i>
   <i type="logical" name="LFOCKAEDFT"> F  </i>
   <i name="HFSCREEN">      0.00000000</i>
   <i name="HFSCREENC">      0.00000000</i>
   <i type="int" name="NBANDSGWLOW">     0</i>
  </separator>
  <separator name="vdW DFT" >
   <i type="logical" name="LUSE_VDW"> F  </i>
   <i name="Zab_VDW">     -0.84910000</i>
   <i name="PARAM1">      0.12340000</i>
   <i name="PARAM2">      1.00000000</i>
   <i name="PARAM3">      0.00000000</i>
  </separator>
  <separator name="model GW" >
   <i type="int" name="MODEL_GW">     0</i>
   <i name="MODEL_EPS0">     22.07799716</i>
   <i name="MODEL_ALPHA">      1.00000000</i>
  </separator>
  <separator name="linear response parameters" >
   <i type="logical" name="LEPSILON"> F  </i>
   <i type="logical" name="LRPA"> F  </i>
   <i type="logical" name="LNABLA"> F  </i>
   <i type="logical" name="LVEL"> F  </i>
   <i type="int" name="KINTER">     0</i>
   <i name="CSHIFT">      0.10000000</i>
   <i name="OMEGAMAX">     -1.00000000</i>
   <i name="DEG_THRESHOLD">      0.00200000</i>
  </separator>
  <separator name="orbital magnetization" >
   <i type="logical" name="NUCIND"> F  </i>
   <v name="MAGPOS">      0.00000000      0.00000000      0.00000000</v>
   <i type="logical" name="LNICSALL"> T  </i>
   <i type="logical" name="ORBITALMAG"> F  </i>
   <i type="logical" name="LMAGBLOCH"> F  </i>
   <i type="logical" name="LCHIMAG"> F  </i>
   <i type="logical" name="LGAUGE"> T  </i>
   <i type="int" name="MAGATOM">     0</i>
   <v name="MAGDIPOL">      0.00000000      0.00000000      0.00000000</v>
   <v name="AVECCONST">      0.00000000      0.00000000      0.00000000</v>
  </separator>
  <separator name="response functions" >
   <i type="logical" name="LADDER"> F  </i>
   <i type="logical" name="LFXC"> F  </i>
   <i type="logical" name="LHARTREE"> T  </i>
   <i type="int" name="IBSE">     0</i>
   <i type="logical" name="LTCTE"> F  </i>
   <i type="logical" name="LTETE"> F  </i>
   <i type="logical" name="LTRIPLET"> F  </i>
   <i type="logical" name="LFXCEPS"> F  </i>
   <i type="logical" name="L2ORDER"> F  </i>
   <i type="logical" name="LUSEW"> F  </i>
   <i name="ENCUTGW">     -2.00000000</i>
   <i name="ENCUTGWSOFT">     -2.00000000</i>
   <i name="ENCUTLF">     -1.00000000</i>
   <i type="int" name="LMAXMP2">    -1</i>
   <i name="SCISSOR">      0.00000000</i>
   <i type="int" name="NOMEGA">     0</i>
   <i type="int" name="NOMEGAR">     0</i>
   <i type="int" name="NBANDSGW">    -1</i>
   <i type="int" name="NBANDSO">    -1</i>
   <i type="int" name="NBANDSV">    -1</i>
   <i type="int" name="NELM">     1</i>
   <i type="int" name="DIM">     3</i>
   <i type="int" name="ANTIRES">     0</i>
   <i name="OMEGAMAX">    -30.00000000</i>
   <i name="OMEGATL">   -200.00000000</i>
   <i type="int" name="OMEGAGRID">     0</i>
   <i name="CSHIFT">     -0.10000000</i>
   <i type="logical" name="SELFENERGY"> F  </i>
   <i type="logical" name="LSPECTRAL"> F  </i>
   <i type="logical" name="ODDONLYGW"> F  </i>
   <i type="logical" name="EVENONLYGW"> F  </i>
   <i type="int" name="NKREDLFX">     1</i>
   <i type="int" name="NKREDLFY">     1</i>
   <i type="int" name="NKREDLFZ">     1</i>
   <i type="int" name="MAXMEM">  1800</i>
   <i type="int" name="TELESCOPE">     0</i>
  </separator>
 </parameters>
 <atominfo>
  <atoms>     150 </atoms>
  <types>       2 </types>
  <array name="atoms" >
   <dimension dim="1">ion</dimension>
   <field type="string">element</field>
   <field type="int">atomtype</field>
   <set>
    <rc><c>Mo</c><c>   1</c></rc>
    <rc><c>Mo</c><c>   1</c></rc>
    <rc><c>Mo</c><c>   1</c></rc>
    <rc><c>Mo</c><c>   1</c></rc>
    <rc><c>Mo</c><c>   1</c></rc>
    <rc><c>Mo</c><c>   1</c></rc>
    <rc><c>Mo</c><c>   1</c></rc>
    <rc><c>Mo</c><c>   1</c></rc>
    <rc><c>Mo</c><c>   1</c></rc>
    <rc><c>Mo</c><c>   1</c></rc>
    <rc><c>Mo</c><c>   1</c></rc>
    <rc><c>Mo</c><c>   1</c></rc>
    <rc><c>Mo</c><c>   1</c></rc>
    <rc><c>Mo</c><c>   1</c></rc>
    <rc><c>Mo</c><c>   1</c></rc>
    <rc><c>Mo</c><c>   1</c></rc>
    <rc><c>Mo</c><c>   1</c></rc>
    <rc><c>Mo</c><c>   1</c></rc>
    <rc><c>Mo</c><c>   1</c></rc>
    <rc><c>Mo</c><c>   1</c></rc>
    <rc><c>Mo</c><c>   1</c></rc>
    <rc><c>Mo</c><c>   1</c></rc>
    <rc><c>Mo</c><c>   1</c></rc>
    <rc><c>Mo</c><c>   1</c></rc>
    <rc><c>Mo</c><c>   1</c></rc>
    <rc><c>Mo</c><c>   1</c></rc>
    <rc><c>Mo</c><c>   1</c></rc>
    <rc><c>Mo</c><c>   1</c></rc>
    <rc><c>Mo</c><c>   1</c></rc>
    <rc><c>Mo</c><c>   1</c></rc>
    <rc><c>Mo</c><c>   1</c></rc>
    <rc><c>Mo</c><c>   1</c></rc>
    <rc><c>Mo</c><c>   1</c></rc>
    <rc><c>Mo</c><c>   1</c></rc>
    <rc><c>Mo</c><c>   1</c></rc>
    <rc><c>Mo</c><c>   1</c></rc>
    <rc><c>Mo</c><c>   1</c></rc>
    <rc><c>Mo</c><c>   1</c></rc>
    <rc><c>Mo</c><c>   1</c></rc>
    <rc><c>Mo</c><c>   1</c></rc>
    <rc><c>Mo</c><c>   1</c></rc>
    <rc><c>Mo</c><c>   1</c></rc>
    <rc><c>Mo</c><c>   1</c></rc>
    <rc><c>Mo</c><c>   1</c></rc>
    <rc><c>Mo</c><c>   1</c></rc>
    <rc><c>Mo</c><c>   1</c></rc>
    <rc><c>Mo</c><c>   1</c></rc>
    <rc><c>Mo</c><c>   1</c></rc>
    <rc><c>Mo</c><c>   1</c></rc>
    <rc><c>Mo</c><c>   1</c></rc>
    <rc><c>S </c><c>   2</c></rc>
    <rc><c>S </c><c>   2</c></rc>
    <rc><c>S </c><c>   2</c></rc>
    <rc><c>S </c><c>   2</c></rc>
    <rc><c>S </c><c>   2</c></rc>
    <rc><c>S </c><c>   2</c></rc>
    <rc><c>S </c><c>   2</c></rc>
    <rc><c>S </c><c>   2</c></rc>
    <rc><c>S </c><c>   2</c></rc>
    <rc><c>S </c><c>   2</c></rc>
    <rc><c>S </c><c>   2</c></rc>
    <rc><c>S </c><c>   2</c></rc>
    <rc><c>S </c><c>   2</c></rc>
    <rc><c>S </c><c>   2</c></rc>
    <rc><c>S </c><c>   2</c></rc>
    <rc><c>S </c><c>   2</c></rc>
    <rc><c>S </c><c>   2</c></rc>
    <rc><c>S </c><c>   2</c></rc>
    <rc><c>S </c><c>   2</c></rc>
    <rc><c>S </c><c>   2</c></rc>
    <rc><c>S </c><c>   2</c></rc>
    <rc><c>S </c><c>   2</c></rc>
    <rc><c>S </c><c>   2</c></rc>
    <rc><c>S </c><c>   2</c></rc>
    <rc><c>S </c><c>   2</c></rc>
    <rc><c>S </c><c>   2</c></rc>
    <rc><c>S </c><c>   2</c></rc>
    <rc><c>S </c><c>   2</c></rc>
    <rc><c>S </c><c>   2</c></rc>
    <rc><c>S </c><c>   2</c></rc>
    <rc><c>S </c><c>   2</c></rc>
    <rc><c>S </c><c>   2</c></rc>
    <rc><c>S </c><c>   2</c></rc>
    <rc><c>S </c><c>   2</c></rc>
    <rc><c>S </c><c>   2</c></rc>
    <rc><c>S </c><c>   2</c></rc>
    <rc><c>S </c><c>   2</c></rc>
    <rc><c>S </c><c>   2</c></rc>
    <rc><c>S </c><c>   2</c></rc>
    <rc><c>S </c><c>   2</c></rc>
    <rc><c>S </c><c>   2</c></rc>
    <rc><c>S </c><c>   2</c></rc>
    <rc><c>S </c><c>   2</c></rc>
    <rc><c>S </c><c>   2</c></rc>
    <rc><c>S </c><c>   2</c></rc>
    <rc><c>S </c><c>   2</c></rc>
    <rc><c>S </c><c>   2</c></rc>
    <rc><c>S </c><c>   2</c></rc>
    <rc><c>S </c><c>   2</c></rc>
    <rc><c>S </c><c>   2</c></rc>
    <rc><c>S </c><c>   2</c></rc>
    <rc><c>S </c><c>   2</c></rc>
    <rc><c>S </c><c>   2</c></rc>
    <rc><c>S </c><c>   2</c></rc>
    <rc><c>S </c><c>   2</c></rc>
    <rc><c>S </c><c>   2</c></rc>
    <rc><c>S </c><c>   2</c></rc>
    <rc><c>S </c><c>   2</c></rc>
    <rc><c>S </c><c>   2</c></rc>
    <rc><c>S </c><c>   2</c></rc>
    <rc><c>S </c><c>   2</c></rc>
    <rc><c>S </c><c>   2</c></rc>
    <rc><c>S </c><c>   2</c></rc>
    <rc><c>S </c><c>   2</c></rc>
    <rc><c>S </c><c>   2</c></rc>
    <rc><c>S </c><c>   2</c></rc>
    <rc><c>S </c><c>   2</c></rc>
    <rc><c>S </c><c>   2</c></rc>
    <rc><c>S </c><c>   2</c></rc>
    <rc><c>S </c><c>   2</c></rc>
    <rc><c>S </c><c>   2</c></rc>
    <rc><c>S </c><c>   2</c></rc>
    <rc><c>S </c><c>   2</c></rc>
    <rc><c>S </c><c>   2</c></rc>
    <rc><c>S </c><c>   2</c></rc>
    <rc><c>S </c><c>   2</c></rc>
    <rc><c>S </c><c>   2</c></rc>
    <rc><c>S </c><c>   2</c></rc>
    <rc><c>S </c><c>   2</c></rc>
    <rc><c>S </c><c>   2</c></rc>
    <rc><c>S </c><c>   2</c></rc>
    <rc><c>S </c><c>   2</c></rc>
    <rc><c>S </c><c>   2</c></rc>
    <rc><c>S </c><c>   2</c></rc>
    <rc><c>S </c><c>   2</c></rc>
    <rc><c>S </c><c>   2</c></rc>
    <rc><c>S </c><c>   2</c></rc>
    <rc><c>S </c><c>   2</c></rc>
    <rc><c>S </c><c>   2</c></rc>
    <rc><c>S </c><c>   2</c></rc>
    <rc><c>S </c><c>   2</c></rc>
    <rc><c>S </c><c>   2</c></rc>
    <rc><c>S </c><c>   2</c></rc>
    <rc><c>S </c><c>   2</c></rc>
    <rc><c>S </c><c>   2</c></rc>
    <rc><c>S </c><c>   2</c></rc>
    <rc><c>S </c><c>   2</c></rc>
    <rc><c>S </c><c>   2</c></rc>
    <rc><c>S </c><c>   2</c></rc>
    <rc><c>S </c><c>   2</c></rc>
   </set>
  </array>
  <array name="atomtypes" >
   <dimension dim="1">type</dimension>
   <field type="int">atomspertype</field>
   <field type="string">element</field>
   <field>mass</field>
   <field>valence</field>
   <field type="string">pseudopotential</field>
   <set>
    <rc><c>  50</c><c>Mo</c><c>     95.94000000</c><c>     12.00000000</c><c> PAW Mo_pv 08Jan2002                    </c></rc>
    <rc><c> 100</c><c>S </c><c>     32.06600000</c><c>      6.00000000</c><c>  PAW S_h 21Jan2003                     </c></rc>
   </set>
  </array>
 </atominfo>
 <structure name="initialpos" >
  <crystal>
   <varray name="basis" >
    <v>      15.65451448      -0.00000001       0.00000000 </v>
    <v>      -7.82725475      13.55720592       0.00000000 </v>
    <v>       0.00000000       0.00000000      26.00697779 </v>
   </varray>
   <i name="volume">   5519.49928921 </i>
   <varray name="rec_basis" >
    <v>       0.06387934       0.03688074       0.00000000 </v>
    <v>       0.00000000       0.07376151       0.00000000 </v>
    <v>       0.00000000       0.00000000       0.03845122 </v>
   </varray>
  </crystal>
  <varray name="positions" >
   <v>       0.06666667       0.13333333       0.17304109 </v>
   <v>       0.26666667       0.13333333       0.17304109 </v>
   <v>       0.46666667       0.13333333       0.17304109 </v>
   <v>       0.66666667       0.13333333       0.17304109 </v>
   <v>       0.86666667       0.13333333       0.17304109 </v>
   <v>       0.06666667       0.33333333       0.17304109 </v>
   <v>       0.26666667       0.33333333       0.17304109 </v>
   <v>       0.46666667       0.33333333       0.17304109 </v>
   <v>       0.66666667       0.33333333       0.17304109 </v>
   <v>       0.86666667       0.33333333       0.17304109 </v>
   <v>       0.06666667       0.53333333       0.17304109 </v>
   <v>       0.26666667       0.53333333       0.17304109 </v>
   <v>       0.46666667       0.53333333       0.17304109 </v>
   <v>       0.66666667       0.53333333       0.17304109 </v>
   <v>       0.86666667       0.53333333       0.17304109 </v>
   <v>       0.06666667       0.73333333       0.17304109 </v>
   <v>       0.26666667       0.73333333       0.17304109 </v>
   <v>       0.46666667       0.73333333       0.17304109 </v>
   <v>       0.66666667       0.73333333       0.17304109 </v>
   <v>       0.86666667       0.73333333       0.17304109 </v>
   <v>       0.06666667       0.93333333       0.17304109 </v>
   <v>       0.26666667       0.93333333       0.17304109 </v>
   <v>       0.46666667       0.93333333       0.17304109 </v>
   <v>       0.66666667       0.93333333       0.17304109 </v>
   <v>       0.86666667       0.93333333       0.17304109 </v>
   <v>       0.13333333       0.06666667       0.40532935 </v>
   <v>       0.33333333       0.06666667       0.40532935 </v>
   <v>       0.53333333       0.06666667       0.40532935 </v>
   <v>       0.73333333       0.06666667       0.40532935 </v>
   <v>       0.93333333       0.06666667       0.40532935 </v>
   <v>       0.13333333       0.26666667       0.40532935 </v>
   <v>       0.33333333       0.26666667       0.40532935 </v>
   <v>       0.53333333       0.26666667       0.40532935 </v>
   <v>       0.73333333       0.26666667       0.40532935 </v>
   <v>       0.93333333       0.26666667       0.40532935 </v>
   <v>       0.13333333       0.46666667       0.40532935 </v>
   <v>       0.33333333       0.46666667       0.40532935 </v>
   <v>       0.53333333       0.46666667       0.40532935 </v>
   <v>       0.73333333       0.46666667       0.40532935 </v>
   <v>       0.93333333       0.46666667       0.40532935 </v>
   <v>       0.13333333       0.66666667       0.40532935 </v>
   <v>       0.33333333       0.66666667       0.40532935 </v>
   <v>       0.53333333       0.66666667       0.40532935 </v>
   <v>       0.73333333       0.66666667       0.40532935 </v>
   <v>       0.93333333       0.66666667       0.40532935 </v>
   <v>       0.13333333       0.86666667       0.40532935 </v>
   <v>       0.33333333       0.86666667       0.40532935 </v>
   <v>       0.53333333       0.86666667       0.40532935 </v>
   <v>       0.73333333       0.86666667       0.40532935 </v>
   <v>       0.93333333       0.86666667       0.40532935 </v>
   <v>       0.13333333       0.06666667       0.11318662 </v>
   <v>       0.33333333       0.06666667       0.11318662 </v>
   <v>       0.53333333       0.06666667       0.11318662 </v>
   <v>       0.73333333       0.06666667       0.11318662 </v>
   <v>       0.93333333       0.06666667       0.11318662 </v>
   <v>       0.13333333       0.26666667       0.11318662 </v>
   <v>       0.33333333       0.26666667       0.11318662 </v>
   <v>       0.53333333       0.26666667       0.11318662 </v>
   <v>       0.73333333       0.26666667       0.11318662 </v>
   <v>       0.93333333       0.26666667       0.11318662 </v>
   <v>       0.13333333       0.46666667       0.11318662 </v>
   <v>       0.33333333       0.46666667       0.11318662 </v>
   <v>       0.53333333       0.46666667       0.11318662 </v>
   <v>       0.73333333       0.46666667       0.11318662 </v>
   <v>       0.93333333       0.46666667       0.11318662 </v>
   <v>       0.13333333       0.66666667       0.11318662 </v>
   <v>       0.33333333       0.66666667       0.11318662 </v>
   <v>       0.53333333       0.66666667       0.11318662 </v>
   <v>       0.73333333       0.66666667       0.11318662 </v>
   <v>       0.93333333       0.66666667       0.11318662 </v>
   <v>       0.13333333       0.86666667       0.11318662 </v>
   <v>       0.33333333       0.86666667       0.11318662 </v>
   <v>       0.53333333       0.86666667       0.11318662 </v>
   <v>       0.73333333       0.86666667       0.11318662 </v>
   <v>       0.93333333       0.86666667       0.11318662 </v>
   <v>       0.13366277       0.06666667       0.23334444 </v>
   <v>       0.33333333       0.06666667       0.23301500 </v>
   <v>       0.53333333       0.06666667       0.23301500 </v>
   <v>       0.73333333       0.06666667       0.23301500 </v>
   <v>       0.93333333       0.06666667       0.23301500 </v>
   <v>       0.13333333       0.26666667       0.23301500 </v>
   <v>       0.33333333       0.26666667       0.23301500 </v>
   <v>       0.53333333       0.26666667       0.23301500 </v>
   <v>       0.73333333       0.26666667       0.23301500 </v>
   <v>       0.93333333       0.26666667       0.23301500 </v>
   <v>       0.13333333       0.46666667       0.23301500 </v>
   <v>       0.33333333       0.46666667       0.23301500 </v>
   <v>       0.53333333       0.46666667       0.23301500 </v>
   <v>       0.73333333       0.46666667       0.23301500 </v>
   <v>       0.93333333       0.46666667       0.23301500 </v>
   <v>       0.13333333       0.66666667       0.23301500 </v>
   <v>       0.33333333       0.66666667       0.23301500 </v>
   <v>       0.53333333       0.66666667       0.23301500 </v>
   <v>       0.73333333       0.66666667       0.23301500 </v>
   <v>       0.93333333       0.66666667       0.23301500 </v>
   <v>       0.13333333       0.86666667       0.23301500 </v>
   <v>       0.33333333       0.86666667       0.23301500 </v>
   <v>       0.53333333       0.86666667       0.23301500 </v>
   <v>       0.73333333       0.86666667       0.23301500 </v>
   <v>       0.93333333       0.86666667       0.23301500 </v>
   <v>       0.06666667       0.13333333       0.34535543 </v>
   <v>       0.26666667       0.13333333       0.34535543 </v>
   <v>       0.46666667       0.13333333       0.34535543 </v>
   <v>       0.66666667       0.13333333       0.34535543 </v>
   <v>       0.86666667       0.13333333       0.34535543 </v>
   <v>       0.06666667       0.33333333       0.34535543 </v>
   <v>       0.26666667       0.33333333       0.34535543 </v>
   <v>       0.46666667       0.33333333       0.34535543 </v>
   <v>       0.66666667       0.33333333       0.34535543 </v>
   <v>       0.86666667       0.33333333       0.34535543 </v>
   <v>       0.06666667       0.53333333       0.34535543 </v>
   <v>       0.26666667       0.53333333       0.34535543 </v>
   <v>       0.46666667       0.53333333       0.34535543 </v>
   <v>       0.66666667       0.53333333       0.34535543 </v>
   <v>       0.86666667       0.53333333       0.34535543 </v>
   <v>       0.06666667       0.73333333       0.34535543 </v>
   <v>       0.26666667       0.73333333       0.34535543 </v>
   <v>       0.46666667       0.73333333       0.34535543 </v>
   <v>       0.66666667       0.73333333       0.34535543 </v>
   <v>       0.86666667       0.73333333       0.34535543 </v>
   <v>       0.06666667       0.93333333       0.34535543 </v>
   <v>       0.26666667       0.93333333       0.34535543 </v>
   <v>       0.46666667       0.93333333       0.34535543 </v>
   <v>       0.66666667       0.93333333       0.34535543 </v>
   <v>       0.86666667       0.93333333       0.34535543 </v>
   <v>       0.06666667       0.13333333       0.46518382 </v>
   <v>       0.26666667       0.13333333       0.46518382 </v>
   <v>       0.46666667       0.13333333       0.46518382 </v>
   <v>       0.66666667       0.13333333       0.46518382 </v>
   <v>       0.86666667       0.13333333       0.46518382 </v>
   <v>       0.06666667       0.33333333       0.46518382 </v>
   <v>       0.26666667       0.33333333       0.46518382 </v>
   <v>       0.46666667       0.33333333       0.46518382 </v>
   <v>       0.66666667       0.33333333       0.46518382 </v>
   <v>       0.86666667       0.33333333       0.46518382 </v>
   <v>       0.06666667       0.53333333       0.46518382 </v>
   <v>       0.26666667       0.53333333       0.46518382 </v>
   <v>       0.46666667       0.53333333       0.46518382 </v>
   <v>       0.66666667       0.53333333       0.46518382 </v>
   <v>       0.86666667       0.53333333       0.46518382 </v>
   <v>       0.06666667       0.73333333       0.46518382 </v>
   <v>       0.26666667       0.73333333       0.46518382 </v>
   <v>       0.46666667       0.73333333       0.46518382 </v>
   <v>       0.66666667       0.73333333       0.46518382 </v>
   <v>       0.86666667       0.73333333       0.46518382 </v>
   <v>       0.06666667       0.93333333       0.46518382 </v>
   <v>       0.26666667       0.93333333       0.46518382 </v>
   <v>       0.46666667       0.93333333       0.46518382 </v>
   <v>       0.66666667       0.93333333       0.46518382 </v>
   <v>       0.86666667       0.93333333       0.46518382 </v>
  </varray>
 </structure>
 <calculation>
  <scstep>
   <time name="dav">******** 1583.02</time>
   <time name="total">******** 1587.71</time>
   <energy>
    <i name="alphaZ">   2096.25038681 </i>
    <i name="ewald"> 360975.58391998 </i>
    <i name="hartreedc">-445134.61961100 </i>
    <i name="XCdc">   2152.99956419 </i>
    <i name="pawpsdc">  49961.83574437 </i>
    <i name="pawaedc"> -47918.29686678 </i>
    <i name="eentropy">     -0.00293057 </i>
    <i name="bandstr">  -3160.26469619 </i>
    <i name="atom">  92113.52951886 </i>
    <i name="e_fr_energy">  11087.01502966 </i>
    <i name="e_wo_entrp">  11087.01796023 </i>
    <i name="e_0_energy">  11087.01649495 </i>
   </energy>
  </scstep>
  <scstep>
   <time name="dav">******** 1646.74</time>
   <time name="total"> 1646.93 1646.93</time>
   <energy>
    <i name="e_fr_energy">   -269.34657001 </i>
    <i name="e_wo_entrp">   -269.34657001 </i>
    <i name="e_0_energy">   -269.34657001 </i>
   </energy>
  </scstep>
  <scstep>
   <time name="dav">******** 1639.33</time>
   <time name="total"> 1639.54 1639.54</time>
   <energy>
    <i name="e_fr_energy">  -1232.26566833 </i>
    <i name="e_wo_entrp">  -1232.26566833 </i>
    <i name="e_0_energy">  -1232.26566833 </i>
   </energy>
  </scstep>
  <scstep>
   <time name="dav">******** 1808.03</time>
   <time name="total"> 1808.25 1808.25</time>
   <energy>
    <i name="e_fr_energy">  -1284.11745706 </i>
    <i name="e_wo_entrp">  -1284.11745706 </i>
    <i name="e_0_energy">  -1284.11745706 </i>
   </energy>
  </scstep>
  <scstep>
   <time name="dav">******** 1988.92</time>
   <time name="total">85765.10 2070.25</time>
   <energy>
    <i name="e_fr_energy">  -1286.13208704 </i>
    <i name="e_wo_entrp">  -1286.13208704 </i>
    <i name="e_0_energy">  -1286.13208704 </i>
   </energy>
  </scstep>
  <scstep>
   <time name="dav">******** 1801.62</time>
   <time name="total"> 1887.28 1887.28</time>
   <energy>
    <i name="e_fr_energy">  -1231.42803944 </i>
    <i name="e_wo_entrp">  -1231.42803944 </i>
    <i name="e_0_energy">  -1231.42803944 </i>
   </energy>
  </scstep>
  <scstep>
   <time name="dav">******** 1764.34</time>
   <time name="total"> 1849.96 1849.96</time>
   <energy>
    <i name="e_fr_energy">  -1216.82472859 </i>
    <i name="e_wo_entrp">  -1216.82472859 </i>
    <i name="e_0_energy">  -1216.82472859 </i>
   </energy>
  </scstep>
  <scstep>
   <time name="dav">******** 1660.47</time>
   <time name="total"> 1746.15 1746.15</time>
   <energy>
    <i name="e_fr_energy">  -1214.54625367 </i>
    <i name="e_wo_entrp">  -1214.54625367 </i>
    <i name="e_0_energy">  -1214.54625367 </i>
   </energy>
  </scstep>
  <scstep>
   <time name="dav">******** 1928.79</time>
   <time name="total"> 2014.56 2014.56</time>
   <energy>
    <i name="e_fr_energy">  -1214.46796123 </i>
    <i name="e_wo_entrp">  -1214.46796123 </i>
    <i name="e_0_energy">  -1214.46796123 </i>
   </energy>
  </scstep>
  <scstep>
   <time name="dav">******** 1804.37</time>
   <time name="total"> 1890.27 1890.27</time>
   <energy>
    <i name="e_fr_energy">  -1214.41296223 </i>
    <i name="e_wo_entrp">  -1214.41296223 </i>
    <i name="e_0_energy">  -1214.41296223 </i>
   </energy>
  </scstep>
  <scstep>
   <time name="dav">******** 1781.94</time>
   <time name="total"> 1867.54 1867.54</time>
   <energy>
    <i name="e_fr_energy">  -1214.40545429 </i>
    <i name="e_wo_entrp">  -1214.40545429 </i>
    <i name="e_0_energy">  -1214.40545429 </i>
   </energy>
  </scstep>
  <scstep>
   <time name="dav">******** 1739.26</time>
   <time name="total"> 1825.13 1825.13</time>
   <energy>
    <i name="e_fr_energy">  -1214.40666031 </i>
    <i name="e_wo_entrp">  -1214.40666031 </i>
    <i name="e_0_energy">  -1214.40666031 </i>
   </energy>
  </scstep>
  <scstep>
   <time name="dav">******** 1657.76</time>
   <time name="total"> 1743.93 1743.93</time>
   <energy>
    <i name="e_fr_energy">  -1214.41092568 </i>
    <i name="e_wo_entrp">  -1214.41092568 </i>
    <i name="e_0_energy">  -1214.41092568 </i>
   </energy>
  </scstep>
  <scstep>
   <time name="dav">******** 1649.72</time>
   <time name="total"> 1736.22 1736.22</time>
   <energy>
    <i name="e_fr_energy">  -1214.41468678 </i>
    <i name="e_wo_entrp">  -1214.41468678 </i>
    <i name="e_0_energy">  -1214.41468678 </i>
   </energy>
  </scstep>
  <scstep>
   <time name="dav">******** 1755.07</time>
   <time name="total"> 1841.49 1841.49</time>
   <energy>
    <i name="e_fr_energy">  -1214.41808651 </i>
    <i name="e_wo_entrp">  -1214.41808651 </i>
    <i name="e_0_energy">  -1214.41808651 </i>
   </energy>
  </scstep>
  <scstep>
   <time name="dav">******** 1664.74</time>
   <time name="total"> 1750.26 1750.26</time>
   <energy>
    <i name="e_fr_energy">  -1214.42122225 </i>
    <i name="e_wo_entrp">  -1214.42122225 </i>
    <i name="e_0_energy">  -1214.42122225 </i>
   </energy>
  </scstep>
  <scstep>
   <time name="dav">******** 1603.25</time>
   <time name="total"> 1688.77 1688.77</time>
   <energy>
    <i name="e_fr_energy">  -1214.42374863 </i>
    <i name="e_wo_entrp">  -1214.42374863 </i>
    <i name="e_0_energy">  -1214.42374863 </i>
   </energy>
  </scstep>
  <scstep>
   <time name="dav">******** 1701.16</time>
   <time name="total"> 1786.94 1786.94</time>
   <energy>
    <i name="e_fr_energy">  -1214.42469865 </i>
    <i name="e_wo_entrp">  -1214.42469865 </i>
    <i name="e_0_energy">  -1214.42469865 </i>
   </energy>
  </scstep>
  <scstep>
   <time name="dav">******** 1608.38</time>
   <time name="total"> 1693.78 1693.78</time>
   <energy>
    <i name="e_fr_energy">  -1214.42531111 </i>
    <i name="e_wo_entrp">  -1214.42531111 </i>
    <i name="e_0_energy">  -1214.42531111 </i>
   </energy>
  </scstep>
  <scstep>
   <time name="dav">******** 1606.19</time>
   <time name="total"> 1691.50 1691.50</time>
   <energy>
    <i name="e_fr_energy">  -1214.42562877 </i>
    <i name="e_wo_entrp">  -1214.42562877 </i>
    <i name="e_0_energy">  -1214.42562877 </i>
   </energy>
  </scstep>
  <scstep>
   <time name="dav">******** 1596.01</time>
   <time name="total"> 1681.40 1681.40</time>
   <energy>
    <i name="e_fr_energy">  -1214.42573602 </i>
    <i name="e_wo_entrp">  -1214.42573602 </i>
    <i name="e_0_energy">  -1214.42573602 </i>
   </energy>
  </scstep>
  <scstep>
   <time name="dav">******** 1635.41</time>
   <time name="total"> 1720.69 1720.69</time>
   <energy>
    <i name="e_fr_energy">  -1214.42583632 </i>
    <i name="e_wo_entrp">  -1214.42583632 </i>
    <i name="e_0_energy">  -1214.42583632 </i>
   </energy>
  </scstep>
  <scstep>
   <time name="dav">******** 1593.03</time>
   <time name="total"> 1678.20 1678.20</time>
   <energy>
    <i name="e_fr_energy">  -1214.42598242 </i>
    <i name="e_wo_entrp">  -1214.42598242 </i>
    <i name="e_0_energy">  -1214.42598242 </i>
   </energy>
  </scstep>
  <scstep>
   <time name="dav">******** 1605.69</time>
   <time name="total"> 1690.79 1690.79</time>
   <energy>
    <i name="e_fr_energy">  -1214.42613504 </i>
    <i name="e_wo_entrp">  -1214.42613504 </i>
    <i name="e_0_energy">  -1214.42613504 </i>
   </energy>
  </scstep>
  <scstep>
   <time name="dav">******** 1671.79</time>
   <time name="total"> 1756.84 1756.84</time>
   <energy>
    <i name="e_fr_energy">  -1214.42618789 </i>
    <i name="e_wo_entrp">  -1214.42618789 </i>
    <i name="e_0_energy">  -1214.42618789 </i>
   </energy>
  </scstep>
  <scstep>
   <time name="dav">******** 1458.17</time>
   <time name="total"> 1543.34 1543.34</time>
   <energy>
    <i name="e_fr_energy">  -1214.42623879 </i>
    <i name="e_wo_entrp">  -1214.42623879 </i>
    <i name="e_0_energy">  -1214.42623879 </i>
   </energy>
  </scstep>
  <scstep>
   <time name="dav">******** 1503.56</time>
   <time name="total"> 1588.75 1588.75</time>
   <energy>
    <i name="e_fr_energy">  -1214.42626923 </i>
    <i name="e_wo_entrp">  -1214.42626923 </i>
    <i name="e_0_energy">  -1214.42626923 </i>
   </energy>
  </scstep>
  <scstep>
   <time name="dav">******** 1312.93</time>
   <time name="total"> 1398.02 1398.02</time>
   <energy>
    <i name="e_fr_energy">  -1214.42627488 </i>
    <i name="e_wo_entrp">  -1214.42627488 </i>
    <i name="e_0_energy">  -1214.42627488 </i>
   </energy>
  </scstep>
  <scstep>
   <time name="dav">******** 1288.54</time>
   <time name="total"> 1373.66 1373.66</time>
   <energy>
    <i name="e_fr_energy">  -1214.42627833 </i>
    <i name="e_wo_entrp">  -1214.42627833 </i>
    <i name="e_0_energy">  -1214.42627833 </i>
   </energy>
  </scstep>
  <scstep>
   <time name="dav">******** 1222.96</time>
   <time name="total"> 1308.23 1308.23</time>
   <energy>
    <i name="e_fr_energy">  -1214.42627900 </i>
    <i name="e_wo_entrp">  -1214.42627900 </i>
    <i name="e_0_energy">  -1214.42627900 </i>
   </energy>
  </scstep>
  <scstep>
   <time name="dav">******** 1151.87</time>
   <time name="total"> 1237.07 1237.07</time>
   <energy>
    <i name="e_fr_energy">  -1214.42627922 </i>
    <i name="e_wo_entrp">  -1214.42627922 </i>
    <i name="e_0_energy">  -1214.42627922 </i>
   </energy>
  </scstep>
  <scstep>
   <time name="dav">******** 1144.44</time>
   <time name="total"> 1229.59 1229.59</time>
   <energy>
    <i name="e_fr_energy">  -1214.42627940 </i>
    <i name="e_wo_entrp">  -1214.42627940 </i>
    <i name="e_0_energy">  -1214.42627940 </i>
   </energy>
  </scstep>
  <scstep>
   <time name="dav">******** 1115.08</time>
   <time name="total"> 1200.23 1200.23</time>
   <energy>
    <i name="e_fr_energy">  -1214.42627948 </i>
    <i name="e_wo_entrp">  -1214.42627948 </i>
    <i name="e_0_energy">  -1214.42627948 </i>
   </energy>
  </scstep>
  <scstep>
   <time name="dav">******** 1062.88</time>
   <time name="total"> 1148.10 1148.10</time>
   <energy>
    <i name="e_fr_energy">  -1214.42627949 </i>
    <i name="e_wo_entrp">  -1214.42627949 </i>
    <i name="e_0_energy">  -1214.42627949 </i>
   </energy>
  </scstep>
  <scstep>
   <time name="dav">******** 1045.57</time>
   <time name="total">******** 1050.16</time>
   <energy>
    <i name="alphaZ">   2096.25038681 </i>
    <i name="ewald"> 360975.58391998 </i>
    <i name="hartreedc">-445007.17587589 </i>
    <i name="XCdc">   2130.71379966 </i>
    <i name="pawpsdc">  53563.70232568 </i>
    <i name="pawaedc"> -51760.52133081 </i>
    <i name="eentropy">      0.00000000 </i>
    <i name="bandstr"> -15326.50902379 </i>
    <i name="atom">  92113.52951886 </i>
    <i name="e_fr_energy">  -1214.42627950 </i>
    <i name="e_wo_entrp">  -1214.42627950 </i>
    <i name="e_0_energy">  -1214.42627950 </i>
   </energy>
  </scstep>
  <structure>
   <crystal>
    <varray name="basis" >
     <v>      15.65451448      -0.00000001       0.00000000 </v>
     <v>      -7.82725475      13.55720592       0.00000000 </v>
     <v>       0.00000000       0.00000000      26.00697779 </v>
    </varray>
    <i name="volume">   5519.49928921 </i>
    <varray name="rec_basis" >
     <v>       0.06387934       0.03688074       0.00000000 </v>
     <v>       0.00000000       0.07376151       0.00000000 </v>
     <v>       0.00000000       0.00000000       0.03845122 </v>
    </varray>
   </crystal>
   <varray name="positions" >
    <v>       0.06666667       0.13333333       0.17304109 </v>
    <v>       0.26666667       0.13333333       0.17304109 </v>
    <v>       0.46666667       0.13333333       0.17304109 </v>
    <v>       0.66666667       0.13333333       0.17304109 </v>
    <v>       0.86666667       0.13333333       0.17304109 </v>
    <v>       0.06666667       0.33333333       0.17304109 </v>
    <v>       0.26666667       0.33333333       0.17304109 </v>
    <v>       0.46666667       0.33333333       0.17304109 </v>
    <v>       0.66666667       0.33333333       0.17304109 </v>
    <v>       0.86666667       0.33333333       0.17304109 </v>
    <v>       0.06666667       0.53333333       0.17304109 </v>
    <v>       0.26666667       0.53333333       0.17304109 </v>
    <v>       0.46666667       0.53333333       0.17304109 </v>
    <v>       0.66666667       0.53333333       0.17304109 </v>
    <v>       0.86666667       0.53333333       0.17304109 </v>
    <v>       0.06666667       0.73333333       0.17304109 </v>
    <v>       0.26666667       0.73333333       0.17304109 </v>
    <v>       0.46666667       0.73333333       0.17304109 </v>
    <v>       0.66666667       0.73333333       0.17304109 </v>
    <v>       0.86666667       0.73333333       0.17304109 </v>
    <v>       0.06666667       0.93333333       0.17304109 </v>
    <v>       0.26666667       0.93333333       0.17304109 </v>
    <v>       0.46666667       0.93333333       0.17304109 </v>
    <v>       0.66666667       0.93333333       0.17304109 </v>
    <v>       0.86666667       0.93333333       0.17304109 </v>
    <v>       0.13333333       0.06666667       0.40532935 </v>
    <v>       0.33333333       0.06666667       0.40532935 </v>
    <v>       0.53333333       0.06666667       0.40532935 </v>
    <v>       0.73333333       0.06666667       0.40532935 </v>
    <v>       0.93333333       0.06666667       0.40532935 </v>
    <v>       0.13333333       0.26666667       0.40532935 </v>
    <v>       0.33333333       0.26666667       0.40532935 </v>
    <v>       0.53333333       0.26666667       0.40532935 </v>
    <v>       0.73333333       0.26666667       0.40532935 </v>
    <v>       0.93333333       0.26666667       0.40532935 </v>
    <v>       0.13333333       0.46666667       0.40532935 </v>
    <v>       0.33333333       0.46666667       0.40532935 </v>
    <v>       0.53333333       0.46666667       0.40532935 </v>
    <v>       0.73333333       0.46666667       0.40532935 </v>
    <v>       0.93333333       0.46666667       0.40532935 </v>
    <v>       0.13333333       0.66666667       0.40532935 </v>
    <v>       0.33333333       0.66666667       0.40532935 </v>
    <v>       0.53333333       0.66666667       0.40532935 </v>
    <v>       0.73333333       0.66666667       0.40532935 </v>
    <v>       0.93333333       0.66666667       0.40532935 </v>
    <v>       0.13333333       0.86666667       0.40532935 </v>
    <v>       0.33333333       0.86666667       0.40532935 </v>
    <v>       0.53333333       0.86666667       0.40532935 </v>
    <v>       0.73333333       0.86666667       0.40532935 </v>
    <v>       0.93333333       0.86666667       0.40532935 </v>
    <v>       0.13333333       0.06666667       0.11318662 </v>
    <v>       0.33333333       0.06666667       0.11318662 </v>
    <v>       0.53333333       0.06666667       0.11318662 </v>
    <v>       0.73333333       0.06666667       0.11318662 </v>
    <v>       0.93333333       0.06666667       0.11318662 </v>
    <v>       0.13333333       0.26666667       0.11318662 </v>
    <v>       0.33333333       0.26666667       0.11318662 </v>
    <v>       0.53333333       0.26666667       0.11318662 </v>
    <v>       0.73333333       0.26666667       0.11318662 </v>
    <v>       0.93333333       0.26666667       0.11318662 </v>
    <v>       0.13333333       0.46666667       0.11318662 </v>
    <v>       0.33333333       0.46666667       0.11318662 </v>
    <v>       0.53333333       0.46666667       0.11318662 </v>
    <v>       0.73333333       0.46666667       0.11318662 </v>
    <v>       0.93333333       0.46666667       0.11318662 </v>
    <v>       0.13333333       0.66666667       0.11318662 </v>
    <v>       0.33333333       0.66666667       0.11318662 </v>
    <v>       0.53333333       0.66666667       0.11318662 </v>
    <v>       0.73333333       0.66666667       0.11318662 </v>
    <v>       0.93333333       0.66666667       0.11318662 </v>
    <v>       0.13333333       0.86666667       0.11318662 </v>
    <v>       0.33333333       0.86666667       0.11318662 </v>
    <v>       0.53333333       0.86666667       0.11318662 </v>
    <v>       0.73333333       0.86666667       0.11318662 </v>
    <v>       0.93333333       0.86666667       0.11318662 </v>
    <v>       0.13366277       0.06666667       0.23334444 </v>
    <v>       0.33333333       0.06666667       0.23301500 </v>
    <v>       0.53333333       0.06666667       0.23301500 </v>
    <v>       0.73333333       0.06666667       0.23301500 </v>
    <v>       0.93333333       0.06666667       0.23301500 </v>
    <v>       0.13333333       0.26666667       0.23301500 </v>
    <v>       0.33333333       0.26666667       0.23301500 </v>
    <v>       0.53333333       0.26666667       0.23301500 </v>
    <v>       0.73333333       0.26666667       0.23301500 </v>
    <v>       0.93333333       0.26666667       0.23301500 </v>
    <v>       0.13333333       0.46666667       0.23301500 </v>
    <v>       0.33333333       0.46666667       0.23301500 </v>
    <v>       0.53333333       0.46666667       0.23301500 </v>
    <v>       0.73333333       0.46666667       0.23301500 </v>
    <v>       0.93333333       0.46666667       0.23301500 </v>
    <v>       0.13333333       0.66666667       0.23301500 </v>
    <v>       0.33333333       0.66666667       0.23301500 </v>
    <v>       0.53333333       0.66666667       0.23301500 </v>
    <v>       0.73333333       0.66666667       0.23301500 </v>
    <v>       0.93333333       0.66666667       0.23301500 </v>
    <v>       0.13333333       0.86666667       0.23301500 </v>
    <v>       0.33333333       0.86666667       0.23301500 </v>
    <v>       0.53333333       0.86666667       0.23301500 </v>
    <v>       0.73333333       0.86666667       0.23301500 </v>
    <v>       0.93333333       0.86666667       0.23301500 </v>
    <v>       0.06666667       0.13333333       0.34535543 </v>
    <v>       0.26666667       0.13333333       0.34535543 </v>
    <v>       0.46666667       0.13333333       0.34535543 </v>
    <v>       0.66666667       0.13333333       0.34535543 </v>
    <v>       0.86666667       0.13333333       0.34535543 </v>
    <v>       0.06666667       0.33333333       0.34535543 </v>
    <v>       0.26666667       0.33333333       0.34535543 </v>
    <v>       0.46666667       0.33333333       0.34535543 </v>
    <v>       0.66666667       0.33333333       0.34535543 </v>
    <v>       0.86666667       0.33333333       0.34535543 </v>
    <v>       0.06666667       0.53333333       0.34535543 </v>
    <v>       0.26666667       0.53333333       0.34535543 </v>
    <v>       0.46666667       0.53333333       0.34535543 </v>
    <v>       0.66666667       0.53333333       0.34535543 </v>
    <v>       0.86666667       0.53333333       0.34535543 </v>
    <v>       0.06666667       0.73333333       0.34535543 </v>
    <v>       0.26666667       0.73333333       0.34535543 </v>
    <v>       0.46666667       0.73333333       0.34535543 </v>
    <v>       0.66666667       0.73333333       0.34535543 </v>
    <v>       0.86666667       0.73333333       0.34535543 </v>
    <v>       0.06666667       0.93333333       0.34535543 </v>
    <v>       0.26666667       0.93333333       0.34535543 </v>
    <v>       0.46666667       0.93333333       0.34535543 </v>
    <v>       0.66666667       0.93333333       0.34535543 </v>
    <v>       0.86666667       0.93333333       0.34535543 </v>
    <v>       0.06666667       0.13333333       0.46518382 </v>
    <v>       0.26666667       0.13333333       0.46518382 </v>
    <v>       0.46666667       0.13333333       0.46518382 </v>
    <v>       0.66666667       0.13333333       0.46518382 </v>
    <v>       0.86666667       0.13333333       0.46518382 </v>
    <v>       0.06666667       0.33333333       0.46518382 </v>
    <v>       0.26666667       0.33333333       0.46518382 </v>
    <v>       0.46666667       0.33333333       0.46518382 </v>
    <v>       0.66666667       0.33333333       0.46518382 </v>
    <v>       0.86666667       0.33333333       0.46518382 </v>
    <v>       0.06666667       0.53333333       0.46518382 </v>
    <v>       0.26666667       0.53333333       0.46518382 </v>
    <v>       0.46666667       0.53333333       0.46518382 </v>
    <v>       0.66666667       0.53333333       0.46518382 </v>
    <v>       0.86666667       0.53333333       0.46518382 </v>
    <v>       0.06666667       0.73333333       0.46518382 </v>
    <v>       0.26666667       0.73333333       0.46518382 </v>
    <v>       0.46666667       0.73333333       0.46518382 </v>
    <v>       0.66666667       0.73333333       0.46518382 </v>
    <v>       0.86666667       0.73333333       0.46518382 </v>
    <v>       0.06666667       0.93333333       0.46518382 </v>
    <v>       0.26666667       0.93333333       0.46518382 </v>
    <v>       0.46666667       0.93333333       0.46518382 </v>
    <v>       0.66666667       0.93333333       0.46518382 </v>
    <v>       0.86666667       0.93333333       0.46518382 </v>
   </varray>
  </structure>
  <varray name="forces" >
   <v>       0.04971344      -0.02388520       0.05786545 </v>
   <v>      -0.00402001      -0.00713615       0.02491023 </v>
   <v>       0.00050064       0.00020820       0.00112660 </v>
   <v>       0.00004926       0.00011248       0.00070442 </v>
   <v>       0.00016716      -0.00030873       0.00178499 </v>
   <v>       0.00004549       0.00049446       0.00163068 </v>
   <v>      -0.00229070      -0.00082532       0.00251580 </v>
   <v>       0.00011474      -0.00017340       0.00128358 </v>
   <v>      -0.00009706      -0.00004856       0.00077168 </v>
   <v>       0.00000442      -0.00002200       0.00074940 </v>
   <v>      -0.00009523      -0.00008487       0.00068051 </v>
   <v>       0.00006312       0.00007429       0.00071170 </v>
   <v>      -0.00000114       0.00018838       0.00055660 </v>
   <v>       0.00009503      -0.00002789       0.00072249 </v>
   <v>      -0.00002328       0.00005687       0.00076247 </v>
   <v>       0.00040252      -0.00062847       0.00129190 </v>
   <v>       0.00005608       0.00005734       0.00061170 </v>
   <v>      -0.00000756       0.00000252       0.00068069 </v>
   <v>      -0.00020651      -0.00013293       0.00064783 </v>
   <v>       0.00014214       0.00040336       0.00160319 </v>
   <v>       0.00834205       0.03119518       0.04155367 </v>
   <v>      -0.00041072      -0.00108767       0.00149410 </v>
   <v>       0.00004556      -0.00007874       0.00053881 </v>
   <v>      -0.00015575      -0.00011054       0.00073004 </v>
   <v>       0.00100665       0.00190118       0.00353469 </v>
   <v>       0.00020172       0.00000390      -0.00142587 </v>
   <v>       0.00009909      -0.00009626      -0.00036815 </v>
   <v>       0.00001901      -0.00001533      -0.00070210 </v>
   <v>      -0.00000201       0.00001835      -0.00070587 </v>
   <v>      -0.00005265      -0.00016897      -0.00042002 </v>
   <v>       0.00016091       0.00012599      -0.00046816 </v>
   <v>       0.00000096       0.00013823      -0.00030479 </v>
   <v>      -0.00007930      -0.00003193      -0.00074277 </v>
   <v>      -0.00000086      -0.00001627      -0.00068916 </v>
   <v>       0.00000835      -0.00001117      -0.00076902 </v>
   <v>      -0.00000765       0.00000562      -0.00071666 </v>
   <v>      -0.00000696       0.00008899      -0.00071436 </v>
   <v>       0.00000431       0.00001472      -0.00069764 </v>
   <v>      -0.00001199       0.00001097      -0.00069076 </v>
   <v>       0.00001180       0.00001194      -0.00069950 </v>
   <v>       0.00002105      -0.00000710      -0.00070799 </v>
   <v>      -0.00000930      -0.00000769      -0.00070987 </v>
   <v>      -0.00000413       0.00000223      -0.00072579 </v>
   <v>       0.00000702      -0.00001101      -0.00069272 </v>
   <v>      -0.00001739       0.00004637      -0.00075507 </v>
   <v>       0.00016661       0.00003601      -0.00044810 </v>
   <v>       0.00008236      -0.00005278      -0.00067475 </v>
   <v>       0.00000193       0.00000193      -0.00072350 </v>
   <v>      -0.00006479      -0.00003445      -0.00074350 </v>
   <v>      -0.00013593      -0.00003357      -0.00033666 </v>
   <v>      -0.00171703      -0.00000208       0.01562467 </v>
   <v>      -0.00078974       0.00054631      -0.00002500 </v>
   <v>       0.00005354      -0.00013907       0.00045828 </v>
   <v>       0.00000964       0.00004849       0.00044737 </v>
   <v>       0.00242528       0.00202530       0.00186813 </v>
   <v>      -0.00094213      -0.00358567       0.00208542 </v>
   <v>      -0.00033217      -0.00046646      -0.00024440 </v>
   <v>      -0.00004777      -0.00003254       0.00018537 </v>
   <v>      -0.00000889      -0.00002805       0.00044975 </v>
   <v>       0.00020263      -0.00011578       0.00015154 </v>
   <v>      -0.00001784      -0.00010581       0.00043410 </v>
   <v>       0.00002282       0.00003853       0.00016321 </v>
   <v>      -0.00006973       0.00018211       0.00047163 </v>
   <v>      -0.00002322       0.00000747       0.00044911 </v>
   <v>       0.00002259       0.00001734       0.00044964 </v>
   <v>      -0.00000378       0.00005869       0.00043947 </v>
   <v>      -0.00000029       0.00000301       0.00042910 </v>
   <v>       0.00002314      -0.00000865       0.00045936 </v>
   <v>      -0.00009541      -0.00004852       0.00046603 </v>
   <v>       0.00000542       0.00014682       0.00016805 </v>
   <v>      -0.00253794       0.00064211       0.00114516 </v>
   <v>       0.00010949      -0.00004544       0.00010910 </v>
   <v>       0.00000129       0.00001811       0.00044495 </v>
   <v>       0.00003417       0.00001113       0.00021957 </v>
   <v>       0.00129818       0.00086308       0.00070856 </v>
   <v>      -0.06081017      -0.00019652      -0.12988361 </v>
   <v>       0.00426548       0.00049340      -0.00276001 </v>
   <v>      -0.00001069      -0.00003818       0.00046833 </v>
   <v>      -0.00001284      -0.00000852       0.00047519 </v>
   <v>       0.00312717       0.00031955      -0.00205847 </v>
   <v>      -0.00010769      -0.00148627      -0.00243963 </v>
   <v>       0.00114259       0.00202257      -0.00237641 </v>
   <v>      -0.00021103      -0.00012063       0.00079558 </v>
   <v>       0.00003103      -0.00000112       0.00070212 </v>
   <v>      -0.00002372       0.00000616       0.00071280 </v>
   <v>       0.00002625       0.00000206       0.00048678 </v>
   <v>       0.00000581      -0.00008811       0.00074937 </v>
   <v>      -0.00000997       0.00001987       0.00045335 </v>
   <v>       0.00001527       0.00000800       0.00069968 </v>
   <v>       0.00001071      -0.00001281       0.00070006 </v>
   <v>       0.00002285       0.00004274       0.00048431 </v>
   <v>       0.00002208      -0.00000635       0.00069569 </v>
   <v>       0.00002643       0.00001149       0.00069225 </v>
   <v>      -0.00001600      -0.00001513       0.00045769 </v>
   <v>      -0.00000749       0.00011103       0.00075299 </v>
   <v>       0.00042754      -0.00259112      -0.00278805 </v>
   <v>      -0.00018966       0.00011736       0.00080541 </v>
   <v>       0.00003966       0.00000662       0.00069378 </v>
   <v>      -0.00003760      -0.00002057       0.00069866 </v>
   <v>       0.00059649       0.00124652      -0.00202329 </v>
   <v>      -0.00064601       0.00029219      -0.00045718 </v>
   <v>       0.00104760       0.00068594       0.00058822 </v>
   <v>      -0.00002942      -0.00003593      -0.00081318 </v>
   <v>       0.00000220      -0.00002062      -0.00075284 </v>
   <v>       0.00008885      -0.00006553      -0.00075101 </v>
   <v>       0.00009837      -0.00004149      -0.00074726 </v>
   <v>      -0.00013034       0.00015075      -0.00092162 </v>
   <v>      -0.00004572      -0.00000662      -0.00082021 </v>
   <v>      -0.00000036       0.00000374      -0.00074559 </v>
   <v>       0.00001038      -0.00000353      -0.00074043 </v>
   <v>       0.00001756       0.00001216      -0.00074708 </v>
   <v>       0.00001682      -0.00000868      -0.00074676 </v>
   <v>      -0.00003274      -0.00001508      -0.00076954 </v>
   <v>      -0.00001139       0.00001122      -0.00075787 </v>
   <v>      -0.00000131       0.00000954      -0.00074014 </v>
   <v>       0.00001252       0.00007105      -0.00077833 </v>
   <v>       0.00001066       0.00002030      -0.00076084 </v>
   <v>       0.00000118      -0.00000100      -0.00072967 </v>
   <v>       0.00000926       0.00003406      -0.00076021 </v>
   <v>      -0.00001238       0.00007430      -0.00078925 </v>
   <v>      -0.00014017      -0.00098070       0.00006283 </v>
   <v>       0.00014893      -0.00016488      -0.00084337 </v>
   <v>      -0.00001990      -0.00002855      -0.00077084 </v>
   <v>       0.00002828      -0.00000763      -0.00074732 </v>
   <v>      -0.00010896       0.00000865      -0.00099595 </v>
   <v>      -0.00000188      -0.00000346      -0.00039502 </v>
   <v>      -0.00001745      -0.00000991      -0.00041272 </v>
   <v>      -0.00001510      -0.00002802      -0.00043154 </v>
   <v>       0.00000648      -0.00000663      -0.00042320 </v>
   <v>      -0.00000703      -0.00000417      -0.00041247 </v>
   <v>      -0.00000122       0.00000855      -0.00041106 </v>
   <v>      -0.00001727      -0.00006831      -0.00045312 </v>
   <v>      -0.00003087       0.00000444      -0.00043498 </v>
   <v>       0.00000957       0.00000615      -0.00042712 </v>
   <v>       0.00001087      -0.00000029      -0.00042482 </v>
   <v>       0.00000399       0.00000171      -0.00042063 </v>
   <v>       0.00001318      -0.00000891      -0.00040828 </v>
   <v>      -0.00001653      -0.00000638      -0.00042045 </v>
   <v>      -0.00000290       0.00000856      -0.00042149 </v>
   <v>       0.00000466       0.00000392      -0.00042381 </v>
   <v>       0.00000871       0.00000934      -0.00041929 </v>
   <v>      -0.00000368       0.00001502      -0.00041398 </v>
   <v>      -0.00000244      -0.00000196      -0.00041634 </v>
   <v>      -0.00000110       0.00001875      -0.00041788 </v>
   <v>      -0.00001163       0.00000803      -0.00042402 </v>
   <v>      -0.00000413       0.00000559      -0.00040227 </v>
   <v>      -0.00007055       0.00002628      -0.00045359 </v>
   <v>      -0.00001634      -0.00001087      -0.00042050 </v>
   <v>       0.00001766      -0.00001274      -0.00041224 </v>
   <v>       0.00005389       0.00003661      -0.00044692 </v>
  </varray>
  <varray name="stress" >
   <v>      -0.36722855       0.00501309      -0.02157359 </v>
   <v>       0.00501303      -0.36721854      -0.00009051 </v>
   <v>      -0.02157336      -0.00009040      -0.41640772 </v>
  </varray>
  <energy>
   <i name="e_fr_energy">  -1214.42627950 </i>
   <i name="e_wo_entrp">  -1214.42627950 </i>
   <i name="e_0_energy">      0.00000000 </i>
  </energy>
  <time name="totalsc">********60020.32</time>
  <eigenvalues>
   <array>
    <dimension dim="1">band</dimension>
    <dimension dim="2">kpoint</dimension>
    <dimension dim="3">spin</dimension>
    <field>eigene</field>
    <field>occ</field>
    <set>
     <set comment="spin 1">
      <set comment="kpoint 1">
       <r>  -35.2372    1.0000 </r>
       <r>  -35.2372    1.0000 </r>
       <r>  -35.2372    1.0000 </r>
       <r>  -35.2372    1.0000 </r>
       <r>  -35.2372    1.0000 </r>
       <r>  -35.2372    1.0000 </r>
       <r>  -35.2370    1.0000 </r>
       <r>  -35.2370    1.0000 </r>
       <r>  -35.2368    1.0000 </r>
       <r>  -35.2368    1.0000 </r>
       <r>  -35.2368    1.0000 </r>
       <r>  -35.2364    1.0000 </r>
       <r>  -35.2271    1.0000 </r>
       <r>  -35.2271    1.0000 </r>
       <r>  -35.2271    1.0000 </r>
       <r>  -35.2271    1.0000 </r>
       <r>  -35.2271    1.0000 </r>
       <r>  -35.2271    1.0000 </r>
       <r>  -35.2269    1.0000 </r>
       <r>  -35.2268    1.0000 </r>
       <r>  -35.2268    1.0000 </r>
       <r>  -35.2267    1.0000 </r>
       <r>  -35.2267    1.0000 </r>
       <r>  -35.2262    1.0000 </r>
       <r>  -35.1505    1.0000 </r>
       <r>  -35.1505    1.0000 </r>
       <r>  -35.1505    1.0000 </r>
       <r>  -35.1505    1.0000 </r>
       <r>  -35.1505    1.0000 </r>
       <r>  -35.1505    1.0000 </r>
       <r>  -35.1502    1.0000 </r>
       <r>  -35.1502    1.0000 </r>
       <r>  -35.1501    1.0000 </r>
       <r>  -35.1500    1.0000 </r>
       <r>  -35.1500    1.0000 </r>
       <r>  -35.1497    1.0000 </r>
       <r>  -35.1085    1.0000 </r>
       <r>  -35.1081    1.0000 </r>
       <r>  -35.0768    1.0000 </r>
       <r>  -35.0767    1.0000 </r>
       <r>  -35.0767    1.0000 </r>
       <r>  -35.0767    1.0000 </r>
       <r>  -35.0767    1.0000 </r>
       <r>  -35.0767    1.0000 </r>
       <r>  -35.0766    1.0000 </r>
       <r>  -35.0764    1.0000 </r>
       <r>  -35.0764    1.0000 </r>
       <r>  -35.0763    1.0000 </r>
       <r>  -35.0763    1.0000 </r>
       <r>  -35.0763    1.0000 </r>
       <r>  -35.0349    1.0000 </r>
       <r>  -35.0349    1.0000 </r>
       <r>  -35.0349    1.0000 </r>
       <r>  -35.0349    1.0000 </r>
       <r>  -35.0349    1.0000 </r>
       <r>  -35.0349    1.0000 </r>
       <r>  -35.0348    1.0000 </r>
       <r>  -35.0347    1.0000 </r>
       <r>  -35.0345    1.0000 </r>
       <r>  -35.0345    1.0000 </r>
       <r>  -35.0345    1.0000 </r>
       <r>  -35.0344    1.0000 </r>
       <r>  -35.0299    1.0000 </r>
       <r>  -35.0299    1.0000 </r>
       <r>  -35.0299    1.0000 </r>
       <r>  -35.0299    1.0000 </r>
       <r>  -35.0298    1.0000 </r>
       <r>  -35.0298    1.0000 </r>
       <r>  -35.0297    1.0000 </r>
       <r>  -35.0295    1.0000 </r>
       <r>  -35.0294    1.0000 </r>
       <r>  -35.0294    1.0000 </r>
       <r>  -35.0293    1.0000 </r>
       <r>  -35.0293    1.0000 </r>
       <r>  -35.0250    1.0000 </r>
       <r>  -35.0250    1.0000 </r>
       <r>  -35.0249    1.0000 </r>
       <r>  -35.0249    1.0000 </r>
       <r>  -35.0249    1.0000 </r>
       <r>  -35.0249    1.0000 </r>
       <r>  -35.0248    1.0000 </r>
       <r>  -35.0247    1.0000 </r>
       <r>  -35.0246    1.0000 </r>
       <r>  -35.0246    1.0000 </r>
       <r>  -35.0245    1.0000 </r>
       <r>  -35.0245    1.0000 </r>
       <r>  -35.0090    1.0000 </r>
       <r>  -35.0090    1.0000 </r>
       <r>  -35.0089    1.0000 </r>
       <r>  -35.0089    1.0000 </r>
       <r>  -35.0089    1.0000 </r>
       <r>  -35.0089    1.0000 </r>
       <r>  -35.0088    1.0000 </r>
       <r>  -35.0087    1.0000 </r>
       <r>  -35.0086    1.0000 </r>
       <r>  -35.0086    1.0000 </r>
       <r>  -35.0085    1.0000 </r>
       <r>  -35.0085    1.0000 </r>
       <r>  -34.9882    1.0000 </r>
       <r>  -34.9882    1.0000 </r>
       <r>  -34.9882    1.0000 </r>
       <r>  -34.9882    1.0000 </r>
       <r>  -34.9882    1.0000 </r>
       <r>  -34.9882    1.0000 </r>
       <r>  -34.9880    1.0000 </r>
       <r>  -34.9880    1.0000 </r>
       <r>  -34.9878    1.0000 </r>
       <r>  -34.9878    1.0000 </r>
       <r>  -34.9877    1.0000 </r>
       <r>  -34.9876    1.0000 </r>
       <r>  -34.9536    1.0000 </r>
       <r>  -34.9536    1.0000 </r>
       <r>  -34.9536    1.0000 </r>
       <r>  -34.9536    1.0000 </r>
       <r>  -34.9536    1.0000 </r>
       <r>  -34.9536    1.0000 </r>
       <r>  -34.9534    1.0000 </r>
       <r>  -34.9533    1.0000 </r>
       <r>  -34.9532    1.0000 </r>
       <r>  -34.9531    1.0000 </r>
       <r>  -34.9530    1.0000 </r>
       <r>  -34.9530    1.0000 </r>
       <r>  -34.9230    1.0000 </r>
       <r>  -34.9229    1.0000 </r>
       <r>  -34.9229    1.0000 </r>
       <r>  -34.9229    1.0000 </r>
       <r>  -34.9229    1.0000 </r>
       <r>  -34.9229    1.0000 </r>
       <r>  -34.9229    1.0000 </r>
       <r>  -34.9226    1.0000 </r>
       <r>  -34.9226    1.0000 </r>
       <r>  -34.9226    1.0000 </r>
       <r>  -34.9223    1.0000 </r>
       <r>  -34.9223    1.0000 </r>
       <r>  -34.8651    1.0000 </r>
       <r>  -34.8651    1.0000 </r>
       <r>  -34.8651    1.0000 </r>
       <r>  -34.8651    1.0000 </r>
       <r>  -34.8651    1.0000 </r>
       <r>  -34.8651    1.0000 </r>
       <r>  -34.8648    1.0000 </r>
       <r>  -34.8648    1.0000 </r>
       <r>  -34.8648    1.0000 </r>
       <r>  -34.8647    1.0000 </r>
       <r>  -34.8646    1.0000 </r>
       <r>  -34.8645    1.0000 </r>
       <r>  -34.8290    1.0000 </r>
       <r>  -34.8290    1.0000 </r>
       <r>  -34.8286    1.0000 </r>
       <r>  -34.8286    1.0000 </r>
       <r>  -14.6095    1.0000 </r>
       <r>  -14.4290    1.0000 </r>
       <r>  -14.0003    1.0000 </r>
       <r>  -14.0002    1.0000 </r>
       <r>  -14.0001    1.0000 </r>
       <r>  -14.0001    1.0000 </r>
       <r>  -14.0001    1.0000 </r>
       <r>  -13.9989    1.0000 </r>
       <r>  -13.8261    1.0000 </r>
       <r>  -13.8261    1.0000 </r>
       <r>  -13.8261    1.0000 </r>
       <r>  -13.8261    1.0000 </r>
       <r>  -13.8260    1.0000 </r>
       <r>  -13.8244    1.0000 </r>
       <r>  -13.2632    1.0000 </r>
       <r>  -13.0473    1.0000 </r>
       <r>  -13.0471    1.0000 </r>
       <r>  -13.0471    1.0000 </r>
       <r>  -13.0470    1.0000 </r>
       <r>  -13.0470    1.0000 </r>
       <r>  -13.0456    1.0000 </r>
       <r>  -12.9915    1.0000 </r>
       <r>  -12.9909    1.0000 </r>
       <r>  -12.9909    1.0000 </r>
       <r>  -12.9909    1.0000 </r>
       <r>  -12.9909    1.0000 </r>
       <r>  -12.9908    1.0000 </r>
       <r>  -12.9807    1.0000 </r>
       <r>  -12.9045    1.0000 </r>
       <r>  -12.9044    1.0000 </r>
       <r>  -12.9044    1.0000 </r>
       <r>  -12.9044    1.0000 </r>
       <r>  -12.9044    1.0000 </r>
       <r>  -12.9029    1.0000 </r>
       <r>  -12.7611    1.0000 </r>
       <r>  -12.7610    1.0000 </r>
       <r>  -12.7609    1.0000 </r>
       <r>  -12.7608    1.0000 </r>
       <r>  -12.7608    1.0000 </r>
       <r>  -12.7597    1.0000 </r>
       <r>  -12.7581    1.0000 </r>
       <r>  -12.7580    1.0000 </r>
       <r>  -12.7580    1.0000 </r>
       <r>  -12.7580    1.0000 </r>
       <r>  -12.7579    1.0000 </r>
       <r>  -12.7567    1.0000 </r>
       <r>  -12.6422    1.0000 </r>
       <r>  -12.6422    1.0000 </r>
       <r>  -12.6421    1.0000 </r>
       <r>  -12.6421    1.0000 </r>
       <r>  -12.6421    1.0000 </r>
       <r>  -12.6407    1.0000 </r>
       <r>  -12.5598    1.0000 </r>
       <r>  -12.5597    1.0000 </r>
       <r>  -12.5597    1.0000 </r>
       <r>  -12.5596    1.0000 </r>
       <r>  -12.5596    1.0000 </r>
       <r>  -12.5594    1.0000 </r>
       <r>  -12.4482    1.0000 </r>
       <r>  -12.4482    1.0000 </r>
       <r>  -12.4482    1.0000 </r>
       <r>  -12.4481    1.0000 </r>
       <r>  -12.4481    1.0000 </r>
       <r>  -12.4479    1.0000 </r>
       <r>  -12.4162    1.0000 </r>
       <r>  -12.4161    1.0000 </r>
       <r>  -12.4161    1.0000 </r>
       <r>  -12.4160    1.0000 </r>
       <r>  -12.4160    1.0000 </r>
       <r>  -12.4149    1.0000 </r>
       <r>  -12.3487    1.0000 </r>
       <r>  -12.3487    1.0000 </r>
       <r>  -12.3486    1.0000 </r>
       <r>  -12.3486    1.0000 </r>
       <r>  -12.3486    1.0000 </r>
       <r>  -12.3473    1.0000 </r>
       <r>  -12.2929    1.0000 </r>
       <r>  -12.2928    1.0000 </r>
       <r>  -12.2928    1.0000 </r>
       <r>  -12.2927    1.0000 </r>
       <r>  -12.2927    1.0000 </r>
       <r>  -12.2905    1.0000 </r>
       <r>  -12.2271    1.0000 </r>
       <r>  -12.2271    1.0000 </r>
       <r>  -12.2271    1.0000 </r>
       <r>  -12.2270    1.0000 </r>
       <r>  -12.2270    1.0000 </r>
       <r>  -12.2257    1.0000 </r>
       <r>  -12.2022    1.0000 </r>
       <r>  -12.2022    1.0000 </r>
       <r>  -12.2022    1.0000 </r>
       <r>  -12.2022    1.0000 </r>
       <r>  -12.2022    1.0000 </r>
       <r>  -12.2020    1.0000 </r>
       <r>  -12.1774    1.0000 </r>
       <r>  -12.1773    1.0000 </r>
       <r>  -12.1773    1.0000 </r>
       <r>  -12.1773    1.0000 </r>
       <r>  -12.1772    1.0000 </r>
       <r>  -12.1756    1.0000 </r>
       <r>   -6.4328    1.0000 </r>
       <r>   -6.1417    1.0000 </r>
       <r>   -6.1416    1.0000 </r>
       <r>   -6.1416    1.0000 </r>
       <r>   -6.1413    1.0000 </r>
       <r>   -6.1411    1.0000 </r>
       <r>   -6.1408    1.0000 </r>
       <r>   -5.9352    1.0000 </r>
       <r>   -5.9351    1.0000 </r>
       <r>   -5.9351    1.0000 </r>
       <r>   -5.9348    1.0000 </r>
       <r>   -5.9345    1.0000 </r>
       <r>   -5.9343    1.0000 </r>
       <r>   -5.8601    1.0000 </r>
       <r>   -5.8600    1.0000 </r>
       <r>   -5.8599    1.0000 </r>
       <r>   -5.8599    1.0000 </r>
       <r>   -5.8599    1.0000 </r>
       <r>   -5.8586    1.0000 </r>
       <r>   -5.8115    1.0000 </r>
       <r>   -5.8115    1.0000 </r>
       <r>   -5.8114    1.0000 </r>
       <r>   -5.8113    1.0000 </r>
       <r>   -5.8109    1.0000 </r>
       <r>   -5.8104    1.0000 </r>
       <r>   -5.8100    1.0000 </r>
       <r>   -5.6753    1.0000 </r>
       <r>   -5.6752    1.0000 </r>
       <r>   -5.6752    1.0000 </r>
       <r>   -5.6751    1.0000 </r>
       <r>   -5.6748    1.0000 </r>
       <r>   -5.6747    1.0000 </r>
       <r>   -5.6555    1.0000 </r>
       <r>   -5.6554    1.0000 </r>
       <r>   -5.6554    1.0000 </r>
       <r>   -5.6553    1.0000 </r>
       <r>   -5.6550    1.0000 </r>
       <r>   -5.6549    1.0000 </r>
       <r>   -5.6530    1.0000 </r>
       <r>   -5.6529    1.0000 </r>
       <r>   -5.6529    1.0000 </r>
       <r>   -5.6526    1.0000 </r>
       <r>   -5.6526    1.0000 </r>
       <r>   -5.6514    1.0000 </r>
       <r>   -5.6222    1.0000 </r>
       <r>   -5.6221    1.0000 </r>
       <r>   -5.6219    1.0000 </r>
       <r>   -5.6219    1.0000 </r>
       <r>   -5.6210    1.0000 </r>
       <r>   -5.6206    1.0000 </r>
       <r>   -5.4061    1.0000 </r>
       <r>   -5.4061    1.0000 </r>
       <r>   -5.4061    1.0000 </r>
       <r>   -5.4056    1.0000 </r>
       <r>   -5.4055    1.0000 </r>
       <r>   -5.4050    1.0000 </r>
       <r>   -5.2867    1.0000 </r>
       <r>   -5.2867    1.0000 </r>
       <r>   -5.2867    1.0000 </r>
       <r>   -5.2866    1.0000 </r>
       <r>   -5.2866    1.0000 </r>
       <r>   -5.2846    1.0000 </r>
       <r>   -5.1824    1.0000 </r>
       <r>   -5.1818    1.0000 </r>
       <r>   -5.1816    1.0000 </r>
       <r>   -5.1815    1.0000 </r>
       <r>   -5.1813    1.0000 </r>
       <r>   -5.1813    1.0000 </r>
       <r>   -4.9665    1.0000 </r>
       <r>   -4.9664    1.0000 </r>
       <r>   -4.9664    1.0000 </r>
       <r>   -4.9664    1.0000 </r>
       <r>   -4.9661    1.0000 </r>
       <r>   -4.9660    1.0000 </r>
       <r>   -4.6882    1.0000 </r>
       <r>   -4.6881    1.0000 </r>
       <r>   -4.6880    1.0000 </r>
       <r>   -4.6880    1.0000 </r>
       <r>   -4.6877    1.0000 </r>
       <r>   -4.6876    1.0000 </r>
       <r>   -4.5924    1.0000 </r>
       <r>   -4.5923    1.0000 </r>
       <r>   -4.5923    1.0000 </r>
       <r>   -4.5922    1.0000 </r>
       <r>   -4.5914    1.0000 </r>
       <r>   -4.5912    1.0000 </r>
       <r>   -4.4859    1.0000 </r>
       <r>   -4.4854    1.0000 </r>
       <r>   -4.4853    1.0000 </r>
       <r>   -4.4852    1.0000 </r>
       <r>   -4.4850    1.0000 </r>
       <r>   -4.4847    1.0000 </r>
       <r>   -4.4828    1.0000 </r>
       <r>   -4.4827    1.0000 </r>
       <r>   -4.4827    1.0000 </r>
       <r>   -4.4826    1.0000 </r>
       <r>   -4.4824    1.0000 </r>
       <r>   -4.4816    1.0000 </r>
       <r>   -4.2167    1.0000 </r>
       <r>   -4.2155    1.0000 </r>
       <r>   -4.2154    1.0000 </r>
       <r>   -4.2153    1.0000 </r>
       <r>   -4.2149    1.0000 </r>
       <r>   -4.2143    1.0000 </r>
       <r>   -4.1698    1.0000 </r>
       <r>   -4.1697    1.0000 </r>
       <r>   -4.1697    1.0000 </r>
       <r>   -4.1696    1.0000 </r>
       <r>   -4.1695    1.0000 </r>
       <r>   -4.1685    1.0000 </r>
       <r>   -4.1145    1.0000 </r>
       <r>   -4.1142    1.0000 </r>
       <r>   -4.1141    1.0000 </r>
       <r>   -4.1140    1.0000 </r>
       <r>   -4.1139    1.0000 </r>
       <r>   -4.1128    1.0000 </r>
       <r>   -3.9832    1.0000 </r>
       <r>   -3.9832    1.0000 </r>
       <r>   -3.9832    1.0000 </r>
       <r>   -3.9829    1.0000 </r>
       <r>   -3.9829    1.0000 </r>
       <r>   -3.9827    1.0000 </r>
       <r>   -3.9758    1.0000 </r>
       <r>   -3.9752    1.0000 </r>
       <r>   -3.9751    1.0000 </r>
       <r>   -3.9750    1.0000 </r>
       <r>   -3.9744    1.0000 </r>
       <r>   -3.9738    1.0000 </r>
       <r>   -3.8779    1.0000 </r>
       <r>   -3.8777    1.0000 </r>
       <r>   -3.8777    1.0000 </r>
       <r>   -3.8776    1.0000 </r>
       <r>   -3.8768    1.0000 </r>
       <r>   -3.8766    1.0000 </r>
       <r>   -3.7997    1.0000 </r>
       <r>   -3.7996    1.0000 </r>
       <r>   -3.7995    1.0000 </r>
       <r>   -3.7995    1.0000 </r>
       <r>   -3.7991    1.0000 </r>
       <r>   -3.7987    1.0000 </r>
       <r>   -3.7556    1.0000 </r>
       <r>   -3.7555    1.0000 </r>
       <r>   -3.7555    1.0000 </r>
       <r>   -3.7555    1.0000 </r>
       <r>   -3.7549    1.0000 </r>
       <r>   -3.7545    1.0000 </r>
       <r>   -3.5939    1.0000 </r>
       <r>   -3.5938    1.0000 </r>
       <r>   -3.5936    1.0000 </r>
       <r>   -3.5935    1.0000 </r>
       <r>   -3.5935    1.0000 </r>
       <r>   -3.5932    1.0000 </r>
       <r>   -3.4212    1.0000 </r>
       <r>   -3.4209    1.0000 </r>
       <r>   -3.4209    1.0000 </r>
       <r>   -3.4207    1.0000 </r>
       <r>   -3.4205    1.0000 </r>
       <r>   -3.4203    1.0000 </r>
       <r>   -3.3922    1.0000 </r>
       <r>   -3.3921    1.0000 </r>
       <r>   -3.3921    1.0000 </r>
       <r>   -3.3920    1.0000 </r>
       <r>   -3.3914    1.0000 </r>
       <r>   -3.3912    1.0000 </r>
       <r>   -3.3897    1.0000 </r>
       <r>   -3.3890    1.0000 </r>
       <r>   -3.3889    1.0000 </r>
       <r>   -3.3887    1.0000 </r>
       <r>   -3.3881    1.0000 </r>
       <r>   -3.3873    1.0000 </r>
       <r>   -3.3429    1.0000 </r>
       <r>   -3.3428    1.0000 </r>
       <r>   -3.3428    1.0000 </r>
       <r>   -3.3427    1.0000 </r>
       <r>   -3.3419    1.0000 </r>
       <r>   -3.3414    1.0000 </r>
       <r>   -3.3337    1.0000 </r>
       <r>   -3.3336    1.0000 </r>
       <r>   -3.3336    1.0000 </r>
       <r>   -3.3332    1.0000 </r>
       <r>   -3.3329    1.0000 </r>
       <r>   -3.3326    1.0000 </r>
       <r>   -3.0589    1.0000 </r>
       <r>   -3.0587    1.0000 </r>
       <r>   -3.0587    1.0000 </r>
       <r>   -3.0587    1.0000 </r>
       <r>   -3.0585    1.0000 </r>
       <r>   -3.0583    1.0000 </r>
       <r>   -2.9198    1.0000 </r>
       <r>   -2.9198    1.0000 </r>
       <r>   -2.9196    1.0000 </r>
       <r>   -2.9195    1.0000 </r>
       <r>   -2.9190    1.0000 </r>
       <r>   -2.9189    1.0000 </r>
       <r>   -2.9056    1.0000 </r>
       <r>   -2.9055    1.0000 </r>
       <r>   -2.8978    1.0000 </r>
       <r>   -2.8977    1.0000 </r>
       <r>   -2.7575    1.0000 </r>
       <r>   -2.5635    1.0000 </r>
       <r>   -2.5632    1.0000 </r>
       <r>   -2.5632    1.0000 </r>
       <r>   -2.5631    1.0000 </r>
       <r>   -2.5629    1.0000 </r>
       <r>   -2.5629    1.0000 </r>
       <r>   -2.5617    1.0000 </r>
       <r>   -2.5612    1.0000 </r>
       <r>   -2.5612    1.0000 </r>
       <r>   -2.5610    1.0000 </r>
       <r>   -2.5604    1.0000 </r>
       <r>   -2.5598    1.0000 </r>
       <r>   -2.5187    1.0000 </r>
       <r>   -2.5186    1.0000 </r>
       <r>   -2.5186    1.0000 </r>
       <r>   -2.5185    1.0000 </r>
       <r>   -2.5179    1.0000 </r>
       <r>   -2.5169    1.0000 </r>
       <r>   -2.4779    1.0000 </r>
       <r>   -2.4778    1.0000 </r>
       <r>   -2.4778    1.0000 </r>
       <r>   -2.4777    1.0000 </r>
       <r>   -2.4773    1.0000 </r>
       <r>   -2.4763    1.0000 </r>
       <r>   -2.3814    1.0000 </r>
       <r>   -2.3806    1.0000 </r>
       <r>   -2.3805    1.0000 </r>
       <r>   -2.3804    1.0000 </r>
       <r>   -2.3804    1.0000 </r>
       <r>   -2.3803    1.0000 </r>
       <r>   -2.2931    1.0000 </r>
[...]
       <r>   -23.0190     0.0000   300.0000 </r>
       <r>   -22.8786     0.0000   300.0000 </r>
       <r>   -22.7383     0.0000   300.0000 </r>
       <r>   -22.5980     0.0000   300.0000 </r>
       <r>   -22.4577     0.0000   300.0000 </r>
       <r>   -22.3173     0.0000   300.0000 </r>
       <r>   -22.1770     0.0000   300.0000 </r>
       <r>   -22.0367     0.0000   300.0000 </r>
       <r>   -21.8963     0.0000   300.0000 </r>
       <r>   -21.7560     0.0000   300.0000 </r>
       <r>   -21.6157     0.0000   300.0000 </r>
       <r>   -21.4753     0.0000   300.0000 </r>
       <r>   -21.3350     0.0000   300.0000 </r>
       <r>   -21.1947     0.0000   300.0000 </r>
       <r>   -21.0544     0.0000   300.0000 </r>
       <r>   -20.9140     0.0000   300.0000 </r>
       <r>   -20.7737     0.0000   300.0000 </r>
       <r>   -20.6334     0.0000   300.0000 </r>
       <r>   -20.4930     0.0000   300.0000 </r>
       <r>   -20.3527     0.0000   300.0000 </r>
       <r>   -20.2124     0.0000   300.0000 </r>
       <r>   -20.0720     0.0000   300.0000 </r>
       <r>   -19.9317     0.0000   300.0000 </r>
       <r>   -19.7914     0.0000   300.0000 </r>
       <r>   -19.6510     0.0000   300.0000 </r>
       <r>   -19.5107     0.0000   300.0000 </r>
       <r>   -19.3704     0.0000   300.0000 </r>
       <r>   -19.2301     0.0000   300.0000 </r>
       <r>   -19.0897     0.0000   300.0000 </r>
       <r>   -18.9494     0.0000   300.0000 </r>
       <r>   -18.8091     0.0000   300.0000 </r>
       <r>   -18.6687     0.0000   300.0000 </r>
       <r>   -18.5284     0.0000   300.0000 </r>
       <r>   -18.3881     0.0000   300.0000 </r>
       <r>   -18.2477     0.0000   300.0000 </r>
       <r>   -18.1074     0.0000   300.0000 </r>
       <r>   -17.9671     0.0000   300.0000 </r>
       <r>   -17.8268     0.0000   300.0000 </r>
       <r>   -17.6864     0.0000   300.0000 </r>
       <r>   -17.5461     0.0000   300.0000 </r>
       <r>   -17.4058     0.0000   300.0000 </r>
       <r>   -17.2654     0.0000   300.0000 </r>
       <r>   -17.1251     0.0000   300.0000 </r>
       <r>   -16.9848     0.0000   300.0000 </r>
       <r>   -16.8444     0.0000   300.0000 </r>
       <r>   -16.7041     0.0000   300.0000 </r>
       <r>   -16.5638     0.0000   300.0000 </r>
       <r>   -16.4235     0.0000   300.0000 </r>
       <r>   -16.2831     0.0000   300.0000 </r>
       <r>   -16.1428     0.0000   300.0000 </r>
       <r>   -16.0025     0.0000   300.0000 </r>
       <r>   -15.8621     0.0000   300.0000 </r>
       <r>   -15.7218     0.0000   300.0000 </r>
       <r>   -15.5815     0.0000   300.0000 </r>
       <r>   -15.4411     0.0000   300.0000 </r>
       <r>   -15.3008     0.0000   300.0000 </r>
       <r>   -15.1605     0.0000   300.0000 </r>
       <r>   -15.0202     0.0000   300.0000 </r>
       <r>   -14.8798     0.0000   300.0000 </r>
       <r>   -14.7395     0.0000   300.0000 </r>
       <r>   -14.5992     3.3043   300.4637 </r>
       <r>   -14.4588     1.5394   300.7160 </r>
       <r>   -14.3185     0.0000   304.0000 </r>
       <r>   -14.1782     0.0000   307.0000 </r>
       <r>   -14.0378     0.0000   310.0000 </r>
       <r>   -13.8975    21.3781   316.0000 </r>
       <r>   -13.7572    21.3781   319.0000 </r>
       <r>   -13.6168     0.5419   319.0761 </r>
       <r>   -13.4765     0.0000   325.0000 </r>
       <r>   -13.3362    21.3781   334.0000 </r>
       <r>   -13.1959    30.3705   338.2619 </r>
       <r>   -13.0555    12.1229   342.2012 </r>
       <r>   -12.9152    86.2204   358.5993 </r>
       <r>   -12.7749   107.5502   377.0926 </r>
       <r>   -12.6345    39.6413   388.5629 </r>
       <r>   -12.4942   163.3075   417.9170 </r>
       <r>   -12.3539   165.0481   446.6612 </r>
       <r>   -12.2135   152.6216   483.9174 </r>
       <r>   -12.0732    42.7563   500.0000 </r>
       <r>   -11.9329     0.0000   500.0000 </r>
       <r>   -11.7926     0.0000   500.0000 </r>
       <r>   -11.6522     0.0000   500.0000 </r>
       <r>   -11.5119     0.0000   500.0000 </r>
       <r>   -11.3716     0.0000   500.0000 </r>
       <r>   -11.2312     0.0000   500.0000 </r>
       <r>   -11.0909     0.0000   500.0000 </r>
       <r>   -10.9506     0.0000   500.0000 </r>
       <r>   -10.8102     0.0000   500.0000 </r>
       <r>   -10.6699     0.0000   500.0000 </r>
       <r>   -10.5296     0.0000   500.0000 </r>
       <r>   -10.3893     0.0000   500.0000 </r>
       <r>   -10.2489     0.0000   500.0000 </r>
       <r>   -10.1086     0.0000   500.0000 </r>
       <r>    -9.9683     0.0000   500.0000 </r>
       <r>    -9.8279     0.0000   500.0000 </r>
       <r>    -9.6876     0.0000   500.0000 </r>
       <r>    -9.5473     0.0000   500.0000 </r>
       <r>    -9.4069     0.0000   500.0000 </r>
       <r>    -9.2666     0.0000   500.0000 </r>
       <r>    -9.1263     0.0000   500.0000 </r>
       <r>    -8.9859     0.0000   500.0000 </r>
       <r>    -8.8456     0.0000   500.0000 </r>
       <r>    -8.7053     0.0000   500.0000 </r>
       <r>    -8.5650     0.0000   500.0000 </r>
       <r>    -8.4246     0.0000   500.0000 </r>
       <r>    -8.2843     0.0000   500.0000 </r>
       <r>    -8.1440     0.0000   500.0000 </r>
       <r>    -8.0036     0.0000   500.0000 </r>
       <r>    -7.8633     0.0000   500.0000 </r>
       <r>    -7.7230     0.0000   500.0000 </r>
       <r>    -7.5826     0.0000   500.0000 </r>
       <r>    -7.4423     0.0000   500.0000 </r>
       <r>    -7.3020     0.0000   500.0000 </r>
       <r>    -7.1617     0.0000   500.0000 </r>
       <r>    -7.0213     0.0000   500.0000 </r>
       <r>    -6.8810     0.0000   500.0000 </r>
       <r>    -6.7407     0.0000   500.0000 </r>
       <r>    -6.6003     0.0000   500.0000 </r>
       <r>    -6.4600     0.0002   500.0000 </r>
       <r>    -6.3197    10.6891   502.0000 </r>
       <r>    -6.1793    26.0231   505.6518 </r>
       <r>    -6.0390     0.0000   515.5000 </r>
       <r>    -5.8987    86.7810   527.6780 </r>
       <r>    -5.7584    88.3138   551.8931 </r>
       <r>    -5.6180   162.2248   577.7651 </r>
       <r>    -5.4777     0.0000   588.0000 </r>
       <r>    -5.3374   201.8858   619.3307 </r>
       <r>    -5.1970    74.8083   638.9979 </r>
       <r>    -5.0567     0.0000   642.0000 </r>
       <r>    -4.9164    32.7491   646.5957 </r>
       <r>    -4.7760     0.1916   651.0269 </r>
       <r>    -4.6357    39.8673   662.5946 </r>
       <r>    -4.4954    45.1127   673.8307 </r>
       <r>    -4.3550     3.8546   680.0409 </r>
       <r>    -4.2147   123.8128   711.8747 </r>
       <r>    -4.0744    64.1344   732.0000 </r>
       <r>    -3.9341   190.3668   761.7142 </r>
       <r>    -3.7937    16.8270   767.3613 </r>
       <r>    -3.6534    21.3781   792.0000 </r>
       <r>    -3.5131   113.7049   810.9562 </r>
       <r>    -3.3727   134.5484   837.8812 </r>
       <r>    -3.2324    72.1208   859.1207 </r>
       <r>    -3.0921    64.3901   873.0359 </r>
       <r>    -2.9517    42.7563   891.0000 </r>
       <r>    -2.8114    42.7563   902.0000 </r>
       <r>    -2.6711    42.7563   908.5000 </r>
       <r>    -2.5308    71.8509   918.5829 </r>
       <r>    -2.3904    87.2728   938.7470 </r>
       <r>    -2.2501   113.8747   957.4801 </r>
       <r>    -2.1098    94.1157   974.2073 </r>
       <r>    -1.9694   152.3705  1010.8822 </r>
       <r>    -1.8291    94.7484  1032.7961 </r>
       <r>    -1.6888    77.2505  1048.3406 </r>
       <r>    -1.5484    37.4187  1059.7510 </r>
       <r>    -1.4081    64.1344  1073.0000 </r>
       <r>    -1.2678    43.5754  1082.1150 </r>
       <r>    -1.1275    57.9451  1102.1315 </r>
       <r>    -0.9871   192.0899  1140.4560 </r>
       <r>    -0.8468    13.3140  1145.3684 </r>
       <r>    -0.7065    79.0453  1171.0924 </r>
       <r>    -0.5661    46.2031  1184.4837 </r>
       <r>    -0.4258    63.0082  1193.3420 </r>
       <r>    -0.2855    21.3781  1196.5000 </r>
       <r>    -0.1451     0.0000  1196.5000 </r>
       <r>    -0.0048     0.0007  1196.5001 </r>
       <r>     0.1355     0.0000  1199.5000 </r>
       <r>     0.2759     3.5630  1200.0000 </r>
       <r>     0.4162     0.0000  1200.0000 </r>
       <r>     0.5565     0.0000  1200.0000 </r>
       <r>     0.6968     0.0000  1200.0000 </r>
       <r>     0.8372     0.0000  1200.0000 </r>
       <r>     0.9775     0.0000  1200.0000 </r>
       <r>     1.1178     0.0000  1200.0000 </r>
       <r>     1.2582     0.0000  1200.0000 </r>
       <r>     1.3985     0.0000  1200.0000 </r>
       <r>     1.5388    32.6901  1204.5874 </r>
       <r>     1.6792    19.6454  1211.7568 </r>
       <r>     1.8195     3.1526  1221.4424 </r>
       <r>     1.9598    65.7112  1242.2213 </r>
       <r>     2.1001   128.9250  1269.0921 </r>
       <r>     2.2405   195.2906  1302.4052 </r>
       <r>     2.3808    81.8389  1325.4845 </r>
       <r>     2.5211   215.7132  1368.2711 </r>
       <r>     2.6615    74.0847  1397.8963 </r>
       <r>     2.8018   173.9814  1422.9149 </r>
       <r>     2.9421    28.5015  1436.9996 </r>
       <r>     3.0825     0.0000  1440.0000 </r>
       <r>     3.2228     0.0000  1440.0000 </r>
       <r>     3.3631     0.0000  1440.0000 </r>
       <r>     3.5034     0.0000  1440.0000 </r>
       <r>     3.6438     0.0000  1440.0000 </r>
       <r>     3.7841     0.0000  1440.0000 </r>
       <r>     3.9244     0.0000  1440.0000 </r>
       <r>     4.0648     0.0000  1440.0000 </r>
       <r>     4.2051     0.0000  1440.0000 </r>
       <r>     4.3454     0.0000  1440.0000 </r>
       <r>     4.4858     0.0000  1440.0000 </r>
       <r>     4.6261     0.0000  1440.0000 </r>
       <r>     4.7664     0.0000  1440.0000 </r>
       <r>     4.9068     0.0000  1440.0000 </r>
      </set>
     </set>
    </array>
   </total>
  </dos>
 </calculation>
 <structure name="finalpos" >
  <crystal>
   <varray name="basis" >
    <v>      15.65451448      -0.00000001       0.00000000 </v>
    <v>      -7.82725475      13.55720592       0.00000000 </v>
    <v>       0.00000000       0.00000000      26.00697779 </v>
   </varray>
   <i name="volume">   5519.49928921 </i>
   <varray name="rec_basis" >
    <v>       0.06387934       0.03688074       0.00000000 </v>
    <v>       0.00000000       0.07376151       0.00000000 </v>
    <v>       0.00000000       0.00000000       0.03845122 </v>
   </varray>
  </crystal>
  <varray name="positions" >
   <v>       0.06666667       0.13333333       0.17304109 </v>
   <v>       0.26666667       0.13333333       0.17304109 </v>
   <v>       0.46666667       0.13333333       0.17304109 </v>
   <v>       0.66666667       0.13333333       0.17304109 </v>
   <v>       0.86666667       0.13333333       0.17304109 </v>
   <v>       0.06666667       0.33333333       0.17304109 </v>
   <v>       0.26666667       0.33333333       0.17304109 </v>
   <v>       0.46666667       0.33333333       0.17304109 </v>
   <v>       0.66666667       0.33333333       0.17304109 </v>
   <v>       0.86666667       0.33333333       0.17304109 </v>
   <v>       0.06666667       0.53333333       0.17304109 </v>
   <v>       0.26666667       0.53333333       0.17304109 </v>
   <v>       0.46666667       0.53333333       0.17304109 </v>
   <v>       0.66666667       0.53333333       0.17304109 </v>
   <v>       0.86666667       0.53333333       0.17304109 </v>
   <v>       0.06666667       0.73333333       0.17304109 </v>
   <v>       0.26666667       0.73333333       0.17304109 </v>
   <v>       0.46666667       0.73333333       0.17304109 </v>
   <v>       0.66666667       0.73333333       0.17304109 </v>
   <v>       0.86666667       0.73333333       0.17304109 </v>
   <v>       0.06666667       0.93333333       0.17304109 </v>
   <v>       0.26666667       0.93333333       0.17304109 </v>
   <v>       0.46666667       0.93333333       0.17304109 </v>
   <v>       0.66666667       0.93333333       0.17304109 </v>
   <v>       0.86666667       0.93333333       0.17304109 </v>
   <v>       0.13333333       0.06666667       0.40532935 </v>
   <v>       0.33333333       0.06666667       0.40532935 </v>
   <v>       0.53333333       0.06666667       0.40532935 </v>
   <v>       0.73333333       0.06666667       0.40532935 </v>
   <v>       0.93333333       0.06666667       0.40532935 </v>
   <v>       0.13333333       0.26666667       0.40532935 </v>
   <v>       0.33333333       0.26666667       0.40532935 </v>
   <v>       0.53333333       0.26666667       0.40532935 </v>
   <v>       0.73333333       0.26666667       0.40532935 </v>
   <v>       0.93333333       0.26666667       0.40532935 </v>
   <v>       0.13333333       0.46666667       0.40532935 </v>
   <v>       0.33333333       0.46666667       0.40532935 </v>
   <v>       0.53333333       0.46666667       0.40532935 </v>
   <v>       0.73333333       0.46666667       0.40532935 </v>
   <v>       0.93333333       0.46666667       0.40532935 </v>
   <v>       0.13333333       0.66666667       0.40532935 </v>
   <v>       0.33333333       0.66666667       0.40532935 </v>
   <v>       0.53333333       0.66666667       0.40532935 </v>
   <v>       0.73333333       0.66666667       0.40532935 </v>
   <v>       0.93333333       0.66666667       0.40532935 </v>
   <v>       0.13333333       0.86666667       0.40532935 </v>
   <v>       0.33333333       0.86666667       0.40532935 </v>
   <v>       0.53333333       0.86666667       0.40532935 </v>
   <v>       0.73333333       0.86666667       0.40532935 </v>
   <v>       0.93333333       0.86666667       0.40532935 </v>
   <v>       0.13333333       0.06666667       0.11318662 </v>
   <v>       0.33333333       0.06666667       0.11318662 </v>
   <v>       0.53333333       0.06666667       0.11318662 </v>
   <v>       0.73333333       0.06666667       0.11318662 </v>
   <v>       0.93333333       0.06666667       0.11318662 </v>
   <v>       0.13333333       0.26666667       0.11318662 </v>
   <v>       0.33333333       0.26666667       0.11318662 </v>
   <v>       0.53333333       0.26666667       0.11318662 </v>
   <v>       0.73333333       0.26666667       0.11318662 </v>
   <v>       0.93333333       0.26666667       0.11318662 </v>
   <v>       0.13333333       0.46666667       0.11318662 </v>
   <v>       0.33333333       0.46666667       0.11318662 </v>
   <v>       0.53333333       0.46666667       0.11318662 </v>
   <v>       0.73333333       0.46666667       0.11318662 </v>
   <v>       0.93333333       0.46666667       0.11318662 </v>
   <v>       0.13333333       0.66666667       0.11318662 </v>
   <v>       0.33333333       0.66666667       0.11318662 </v>
   <v>       0.53333333       0.66666667       0.11318662 </v>
   <v>       0.73333333       0.66666667       0.11318662 </v>
   <v>       0.93333333       0.66666667       0.11318662 </v>
   <v>       0.13333333       0.86666667       0.11318662 </v>
   <v>       0.33333333       0.86666667       0.11318662 </v>
   <v>       0.53333333       0.86666667       0.11318662 </v>
   <v>       0.73333333       0.86666667       0.11318662 </v>
   <v>       0.93333333       0.86666667       0.11318662 </v>
   <v>       0.13366277       0.06666667       0.23334444 </v>
   <v>       0.33333333       0.06666667       0.23301500 </v>
   <v>       0.53333333       0.06666667       0.23301500 </v>
   <v>       0.73333333       0.06666667       0.23301500 </v>
   <v>       0.93333333       0.06666667       0.23301500 </v>
   <v>       0.13333333       0.26666667       0.23301500 </v>
   <v>       0.33333333       0.26666667       0.23301500 </v>
   <v>       0.53333333       0.26666667       0.23301500 </v>
   <v>       0.73333333       0.26666667       0.23301500 </v>
   <v>       0.93333333       0.26666667       0.23301500 </v>
   <v>       0.13333333       0.46666667       0.23301500 </v>
   <v>       0.33333333       0.46666667       0.23301500 </v>
   <v>       0.53333333       0.46666667       0.23301500 </v>
   <v>       0.73333333       0.46666667       0.23301500 </v>
   <v>       0.93333333       0.46666667       0.23301500 </v>
   <v>       0.13333333       0.66666667       0.23301500 </v>
   <v>       0.33333333       0.66666667       0.23301500 </v>
   <v>       0.53333333       0.66666667       0.23301500 </v>
   <v>       0.73333333       0.66666667       0.23301500 </v>
   <v>       0.93333333       0.66666667       0.23301500 </v>
   <v>       0.13333333       0.86666667       0.23301500 </v>
   <v>       0.33333333       0.86666667       0.23301500 </v>
   <v>       0.53333333       0.86666667       0.23301500 </v>
   <v>       0.73333333       0.86666667       0.23301500 </v>
   <v>       0.93333333       0.86666667       0.23301500 </v>
   <v>       0.06666667       0.13333333       0.34535543 </v>
   <v>       0.26666667       0.13333333       0.34535543 </v>
   <v>       0.46666667       0.13333333       0.34535543 </v>
   <v>       0.66666667       0.13333333       0.34535543 </v>
   <v>       0.86666667       0.13333333       0.34535543 </v>
   <v>       0.06666667       0.33333333       0.34535543 </v>
   <v>       0.26666667       0.33333333       0.34535543 </v>
   <v>       0.46666667       0.33333333       0.34535543 </v>
   <v>       0.66666667       0.33333333       0.34535543 </v>
   <v>       0.86666667       0.33333333       0.34535543 </v>
   <v>       0.06666667       0.53333333       0.34535543 </v>
   <v>       0.26666667       0.53333333       0.34535543 </v>
   <v>       0.46666667       0.53333333       0.34535543 </v>
   <v>       0.66666667       0.53333333       0.34535543 </v>
   <v>       0.86666667       0.53333333       0.34535543 </v>
   <v>       0.06666667       0.73333333       0.34535543 </v>
   <v>       0.26666667       0.73333333       0.34535543 </v>
   <v>       0.46666667       0.73333333       0.34535543 </v>
   <v>       0.66666667       0.73333333       0.34535543 </v>
   <v>       0.86666667       0.73333333       0.34535543 </v>
   <v>       0.06666667       0.93333333       0.34535543 </v>
   <v>       0.26666667       0.93333333       0.34535543 </v>
   <v>       0.46666667       0.93333333       0.34535543 </v>
   <v>       0.66666667       0.93333333       0.34535543 </v>
   <v>       0.86666667       0.93333333       0.34535543 </v>
   <v>       0.06666667       0.13333333       0.46518382 </v>
   <v>       0.26666667       0.13333333       0.46518382 </v>
   <v>       0.46666667       0.13333333       0.46518382 </v>
   <v>       0.66666667       0.13333333       0.46518382 </v>
   <v>       0.86666667       0.13333333       0.46518382 </v>
   <v>       0.06666667       0.33333333       0.46518382 </v>
   <v>       0.26666667       0.33333333       0.46518382 </v>
   <v>       0.46666667       0.33333333       0.46518382 </v>
   <v>       0.66666667       0.33333333       0.46518382 </v>
   <v>       0.86666667       0.33333333       0.46518382 </v>
   <v>       0.06666667       0.53333333       0.46518382 </v>
   <v>       0.26666667       0.53333333       0.46518382 </v>
   <v>       0.46666667       0.53333333       0.46518382 </v>
   <v>       0.66666667       0.53333333       0.46518382 </v>
   <v>       0.86666667       0.53333333       0.46518382 </v>
   <v>       0.06666667       0.73333333       0.46518382 </v>
   <v>       0.26666667       0.73333333       0.46518382 </v>
   <v>       0.46666667       0.73333333       0.46518382 </v>
   <v>       0.66666667       0.73333333       0.46518382 </v>
   <v>       0.86666667       0.73333333       0.46518382 </v>
   <v>       0.06666667       0.93333333       0.46518382 </v>
   <v>       0.26666667       0.93333333       0.46518382 </v>
   <v>       0.46666667       0.93333333       0.46518382 </v>
   <v>       0.66666667       0.93333333       0.46518382 </v>
   <v>       0.86666667       0.93333333       0.46518382 </v>
  </varray>
 </structure>
</modeling>
