<?xml version="1.0" encoding="ISO-8859-1"?>
<modeling>
 <generator>
  <i name="program" type="string">vasp </i>
  <i name="version" type="string">5.3.3  </i>
  <i name="subversion" type="string">18Dez12 (build Oct  3 2015 22:05:41) complex                          parallel </i>
  <i name="platform" type="string">BGQ </i>
  <i name="date" type="string">2018 02 12 </i>
  <i name="time" type="string">10:22:57 </i>
 </generator>
 <incar>
  <i type="string" name="SYSTEM"> ZrSiO4_U</i>
  <i type="int" name="ISTART">     1</i>
  <i type="string" name="PREC">accurate</i>
  <i type="string" name="ALGO"> Normal</i>
  <i type="int" name="NSIM">     1</i>
  <i type="logical" name="ADDGRID"> T  </i>
  <i type="int" name="ICHARG">     1</i>
  <i type="int" name="IBRION">    -1</i>
  <i name="EDIFF">      0.00000001</i>
  <i type="int" name="NSW">     0</i>
  <i type="int" name="ISIF">     2</i>
  <i name="ENCUT">    600.00000000</i>
  <i type="logical" name="LREAL"> F  </i>
  <i type="logical" name="LPLANE"> F  </i>
  <i type="int" name="ISMEAR">     0</i>
  <i name="SIGMA">      0.01000000</i>
  <i type="logical" name="LWAVE"> F  </i>
  <i type="logical" name="LCHARG"> F  </i>
 </incar>
 <kpoints>
  <generation param="Gamma">
   <v type="int" name="divisions">       2        2        1 </v>
   <v name="usershift">      0.00000000       0.00000000       0.00000000 </v>
   <v name="genvec1">      0.50000000       0.00000000       0.00000000 </v>
   <v name="genvec2">      0.00000000       0.50000000       0.00000000 </v>
   <v name="genvec3">      0.00000000       0.00000000       1.00000000 </v>
   <v name="shift">      0.00000000       0.00000000       0.00000000 </v>
  </generation>
  <varray name="kpointlist" >
   <v>       0.00000000       0.00000000       0.00000000 </v>
   <v>       0.50000000       0.00000000       0.00000000 </v>
   <v>       0.00000000       0.50000000       0.00000000 </v>
   <v>       0.50000000       0.50000000       0.00000000 </v>
  </varray>
  <varray name="weights" >
   <v>       0.25000000 </v>
   <v>       0.25000000 </v>
   <v>       0.25000000 </v>
   <v>       0.25000000 </v>
  </varray>
 </kpoints>
 <parameters>
  <separator name="general" >
   <i type="string" name="SYSTEM">ZrSiO4_U</i>
   <i type="logical" name="LCOMPAT"> F  </i>
  </separator>
  <separator name="electronic" >
   <i type="string" name="PREC">accura</i>
   <i name="ENMAX">    600.00000000</i>
   <i name="ENAUG">    491.96400000</i>
   <i name="EDIFF">      0.00000001</i>
   <i type="int" name="IALGO">    38</i>
   <i type="int" name="IWAVPR">    10</i>
   <i type="int" name="NBANDS">   720</i>
   <i name="NELECT">   1200.00000000</i>
   <i type="int" name="TURBO">     0</i>
   <i type="int" name="IRESTART">     0</i>
   <i type="int" name="NREBOOT">     0</i>
   <i type="int" name="NMIN">     0</i>
   <i name="EREF">      0.00000000</i>
   <separator name="electronic smearing" >
    <i type="int" name="ISMEAR">     0</i>
    <i name="SIGMA">      0.01000000</i>
    <i name="KSPACING">      0.50000000</i>
    <i type="logical" name="KGAMMA"> T  </i>
   </separator>
   <separator name="electronic projectors" >
    <i type="logical" name="LREAL"> F  </i>
    <v name="ROPT">      0.00000000      0.00000000</v>
    <i type="int" name="LMAXPAW">  -100</i>
    <i type="int" name="LMAXMIX">     2</i>
    <i type="logical" name="NLSPLINE"> F  </i>
   </separator>
   <separator name="electronic startup" >
    <i type="int" name="ISTART">     0</i>
    <i type="int" name="ICHARG">     1</i>
    <i type="int" name="INIWAV">     1</i>
   </separator>
   <separator name="electronic spin" >
    <i type="int" name="ISPIN">     1</i>
    <i type="logical" name="LNONCOLLINEAR"> F  </i>
    <v name="MAGMOM">      1.00000000      1.00000000      1.00000000      1.00000000      1.00000000      1.00000000      1.00000000      1.00000000      1.00000000      1.00000000      1.00000000      1.00000000      1.00000000      1.00000000      1.00000000      1.00000000      1.00000000      1.00000000      1.00000000      1.00000000
      1.00000000      1.00000000      1.00000000      1.00000000      1.00000000      1.00000000      1.00000000      1.00000000      1.00000000      1.00000000      1.00000000      1.00000000      1.00000000      1.00000000      1.00000000      1.00000000      1.00000000      1.00000000      1.00000000      1.00000000
      1.00000000      1.00000000      1.00000000      1.00000000      1.00000000      1.00000000      1.00000000      1.00000000      1.00000000      1.00000000      1.00000000      1.00000000      1.00000000      1.00000000      1.00000000      1.00000000      1.00000000      1.00000000      1.00000000      1.00000000
      1.00000000      1.00000000      1.00000000      1.00000000      1.00000000      1.00000000      1.00000000      1.00000000      1.00000000      1.00000000      1.00000000      1.00000000      1.00000000      1.00000000      1.00000000      1.00000000      1.00000000      1.00000000      1.00000000      1.00000000
      1.00000000      1.00000000      1.00000000      1.00000000      1.00000000      1.00000000      1.00000000      1.00000000      1.00000000      1.00000000      1.00000000      1.00000000      1.00000000      1.00000000      1.00000000      1.00000000      1.00000000      1.00000000      1.00000000      1.00000000
      1.00000000      1.00000000      1.00000000      1.00000000      1.00000000      1.00000000      1.00000000      1.00000000      1.00000000      1.00000000      1.00000000      1.00000000      1.00000000      1.00000000      1.00000000      1.00000000      1.00000000      1.00000000      1.00000000      1.00000000
      1.00000000      1.00000000      1.00000000      1.00000000      1.00000000      1.00000000      1.00000000      1.00000000      1.00000000      1.00000000      1.00000000      1.00000000      1.00000000      1.00000000      1.00000000      1.00000000      1.00000000      1.00000000      1.00000000      1.00000000
      1.00000000      1.00000000      1.00000000      1.00000000      1.00000000      1.00000000      1.00000000      1.00000000      1.00000000      1.00000000</v>
    <i name="NUPDOWN">     -1.00000000</i>
    <i type="logical" name="LSORBIT"> F  </i>
    <v name="SAXIS">      0.00000000      0.00000000      1.00000000</v>
    <i type="logical" name="LSPIRAL"> F  </i>
    <v name="QSPIRAL">      0.00000000      0.00000000      0.00000000</v>
    <i type="logical" name="LZEROZ"> F  </i>
   </separator>
   <separator name="electronic exchange-correlation" >
    <i type="logical" name="LASPH"> F  </i>
    <i type="logical" name="LMETAGGA"> F  </i>
   </separator>
   <separator name="electronic convergence" >
    <i type="int" name="NELM">    60</i>
    <i type="int" name="NELMDL">     0</i>
    <i type="int" name="NELMIN">     2</i>
    <i name="ENINI">    600.00000000</i>
    <separator name="electronic convergence detail" >
     <i type="logical" name="LDIAG"> T  </i>
     <i type="logical" name="LSUBROT"> T  </i>
     <i name="WEIMIN">      0.00000000</i>
     <i name="EBREAK">      0.00000000</i>
     <i name="DEPER">      0.30000000</i>
     <i type="int" name="NRMM">     4</i>
     <i name="TIME">      0.40000000</i>
    </separator>
   </separator>
   <separator name="electronic mixer" >
    <i name="AMIX">      0.40000000</i>
    <i name="BMIX">      1.00000000</i>
    <i name="AMIN">      0.10000000</i>
    <i name="AMIX_MAG">      1.60000000</i>
    <i name="BMIX_MAG">      1.00000000</i>
    <separator name="electronic mixer details" >
     <i type="int" name="IMIX">     4</i>
     <i type="int" name="MAXMIX">   -45</i>
     <i name="WC">    100.00000000</i>
     <i type="int" name="INIMIX">     1</i>
     <i type="int" name="MIXPRE">     1</i>
     <i type="int" name="MREMOVE">     5</i>
    </separator>
   </separator>
   <separator name="electronic dipolcorrection" >
    <i type="logical" name="LDIPOL"> F  </i>
    <i type="logical" name="LMONO"> F  </i>
    <i type="int" name="IDIPOL">     0</i>
    <i name="EPSILON">      1.00000000</i>
    <v name="DIPOL">   -100.00000000   -100.00000000   -100.00000000</v>
    <i name="EFIELD">      0.00000000</i>
   </separator>
  </separator>
  <separator name="grids" >
   <i type="int" name="NGX">   126</i>
   <i type="int" name="NGY">   126</i>
   <i type="int" name="NGZ">   210</i>
   <i type="int" name="NGXF">   252</i>
   <i type="int" name="NGYF">   252</i>
   <i type="int" name="NGZF">   420</i>
   <i type="logical" name="ADDGRID"> T  </i>
  </separator>
  <separator name="ionic" >
   <i type="int" name="NSW">     0</i>
   <i type="int" name="IBRION">    -1</i>
   <i type="int" name="ISIF">     2</i>
   <i name="PSTRESS">      0.00000000</i>
   <i name="EDIFFG">      0.00000010</i>
   <i type="int" name="NFREE">     0</i>
   <i name="POTIM">      0.50000000</i>
   <i name="SMASS">     -3.00000000</i>
   <i name="SCALEE">      1.00000000</i>
  </separator>
  <separator name="ionic md" >
   <i name="TEBEG">      0.00010000</i>
   <i name="TEEND">      0.00010000</i>
   <i type="int" name="NBLOCK">     1</i>
   <i type="int" name="KBLOCK">     1</i>
   <i type="int" name="NPACO">   256</i>
   <i name="APACO">     16.00000000</i>
  </separator>
  <separator name="symmetry" >
   <i type="int" name="ISYM">     2</i>
   <i name="SYMPREC">      0.00001000</i>
  </separator>
  <separator name="dos" >
   <i type="logical" name="LORBIT"> T  </i>
   <v name="RWIGS">     -1.00000000     -1.00000000</v>
   <i type="int" name="NEDOS">   301</i>
   <i name="EMIN">     10.00000000</i>
   <i name="EMAX">    -10.00000000</i>
   <i name="EFERMI">      0.00000000</i>
  </separator>
  <separator name="writing" >
   <i type="int" name="NWRITE">     2</i>
   <i type="logical" name="LWAVE"> F  </i>
   <i type="logical" name="LCHARG"> F  </i>
   <i type="logical" name="LPARD"> F  </i>
   <i type="logical" name="LVTOT"> F  </i>
   <i type="logical" name="LVHAR"> F  </i>
   <i type="logical" name="LELF"> F  </i>
   <i type="logical" name="LOPTICS"> F  </i>
   <v name="STM">      0.00000000      0.00000000      0.00000000      0.00000000      0.00000000      0.00000000      0.00000000</v>
  </separator>
  <separator name="performance" >
   <i type="int" name="NPAR">     8</i>
   <i type="int" name="NSIM">     1</i>
   <i type="int" name="NBLK">    -1</i>
   <i type="logical" name="LPLANE"> F  </i>
   <i type="logical" name="LSCALAPACK"> T  </i>
   <i type="logical" name="LSCAAWARE"> F  </i>
   <i type="logical" name="LSCALU"> F  </i>
   <i type="logical" name="LASYNC"> F  </i>
   <i type="logical" name="LORBITALREAL"> F  </i>
  </separator>
  <separator name="miscellaneous" >
   <i type="int" name="IDIOT">     3</i>
   <i type="logical" name="LMUSIC"> F  </i>
   <v name="POMASS">     95.94000000     32.06600000</v>
   <v name="DARWINR">      0.00000000      0.00000000</v>
   <v name="DARWINV">      1.00000000      1.00000000</v>
   <i type="logical" name="LCORR"> T  </i>
  </separator>
  <i type="logical" name="GGA_COMPAT"> T  </i>
  <i type="logical" name="LBERRY"> F  </i>
  <i type="int" name="ICORELEVEL">     0</i>
  <i type="logical" name="LDAU"> F  </i>
  <i type="int" name="I_CONSTRAINED_M">     0</i>
  <separator name="electronic exchange-correlation" >
   <i type="string" name="GGA">--</i>
   <i type="int" name="VOSKOWN">     0</i>
   <i type="logical" name="LHFCALC"> F  </i>
   <i type="string" name="PRECFOCK"></i>
   <i type="logical" name="LSYMGRAD"> F  </i>
   <i type="logical" name="LHFONE"> F  </i>
   <i type="logical" name="LRHFCALC"> F  </i>
   <i type="logical" name="LTHOMAS"> F  </i>
   <i type="logical" name="LMODELHF"> F  </i>
   <i name="ENCUT4O">     -1.00000000</i>
   <i type="int" name="EXXOEP">     0</i>
   <i type="int" name="FOURORBIT">     0</i>
   <i name="AEXX">      0.00000000</i>
   <i name="HFALPHA">      0.00000000</i>
   <i name="MCALPHA">      0.00000000</i>
   <i name="ALDAX">      1.00000000</i>
   <i name="AGGAX">      1.00000000</i>
   <i name="ALDAC">      1.00000000</i>
   <i name="AGGAC">      1.00000000</i>
   <i type="int" name="NKREDX">     1</i>
   <i type="int" name="NKREDY">     1</i>
   <i type="int" name="NKREDZ">     1</i>
   <i type="logical" name="SHIFTRED"> F  </i>
   <i type="logical" name="ODDONLY"> F  </i>
   <i type="logical" name="EVENONLY"> F  </i>
   <i type="int" name="LMAXFOCK">     0</i>
   <i type="int" name="NMAXFOCKAE">     0</i>
   <i type="logical" name="LFOCKAEDFT"> F  </i>
   <i name="HFSCREEN">      0.00000000</i>
   <i name="HFSCREENC">      0.00000000</i>
   <i type="int" name="NBANDSGWLOW">     0</i>
  </separator>
  <separator name="vdW DFT" >
   <i type="logical" name="LUSE_VDW"> F  </i>
   <i name="Zab_VDW">     -0.84910000</i>
   <i name="PARAM1">      0.12340000</i>
   <i name="PARAM2">      1.00000000</i>
   <i name="PARAM3">      0.00000000</i>
  </separator>
  <separator name="model GW" >
   <i type="int" name="MODEL_GW">     0</i>
   <i name="MODEL_EPS0">     22.07799716</i>
   <i name="MODEL_ALPHA">      1.00000000</i>
  </separator>
  <separator name="linear response parameters" >
   <i type="logical" name="LEPSILON"> F  </i>
   <i type="logical" name="LRPA"> F  </i>
   <i type="logical" name="LNABLA"> F  </i>
   <i type="logical" name="LVEL"> F  </i>
   <i type="int" name="KINTER">     0</i>
   <i name="CSHIFT">      0.10000000</i>
   <i name="OMEGAMAX">     -1.00000000</i>
   <i name="DEG_THRESHOLD">      0.00200000</i>
  </separator>
  <separator name="orbital magnetization" >
   <i type="logical" name="NUCIND"> F  </i>
   <v name="MAGPOS">      0.00000000      0.00000000      0.00000000</v>
   <i type="logical" name="LNICSALL"> T  </i>
   <i type="logical" name="ORBITALMAG"> F  </i>
   <i type="logical" name="LMAGBLOCH"> F  </i>
   <i type="logical" name="LCHIMAG"> F  </i>
   <i type="logical" name="LGAUGE"> T  </i>
   <i type="int" name="MAGATOM">     0</i>
   <v name="MAGDIPOL">      0.00000000      0.00000000      0.00000000</v>
   <v name="AVECCONST">      0.00000000      0.00000000      0.00000000</v>
  </separator>
  <separator name="response functions" >
   <i type="logical" name="LADDER"> F  </i>
   <i type="logical" name="LFXC"> F  </i>
   <i type="logical" name="LHARTREE"> T  </i>
   <i type="int" name="IBSE">     0</i>
   <i type="logical" name="LTCTE"> F  </i>
   <i type="logical" name="LTETE"> F  </i>
   <i type="logical" name="LTRIPLET"> F  </i>
   <i type="logical" name="LFXCEPS"> F  </i>
   <i type="logical" name="L2ORDER"> F  </i>
   <i type="logical" name="LUSEW"> F  </i>
   <i name="ENCUTGW">     -2.00000000</i>
   <i name="ENCUTGWSOFT">     -2.00000000</i>
   <i name="ENCUTLF">     -1.00000000</i>
   <i type="int" name="LMAXMP2">    -1</i>
   <i name="SCISSOR">      0.00000000</i>
   <i type="int" name="NOMEGA">     0</i>
   <i type="int" name="NOMEGAR">     0</i>
   <i type="int" name="NBANDSGW">    -1</i>
   <i type="int" name="NBANDSO">    -1</i>
   <i type="int" name="NBANDSV">    -1</i>
   <i type="int" name="NELM">     1</i>
   <i type="int" name="DIM">     3</i>
   <i type="int" name="ANTIRES">     0</i>
   <i name="OMEGAMAX">    -30.00000000</i>
   <i name="OMEGATL">   -200.00000000</i>
   <i type="int" name="OMEGAGRID">     0</i>
   <i name="CSHIFT">     -0.10000000</i>
   <i type="logical" name="SELFENERGY"> F  </i>
   <i type="logical" name="LSPECTRAL"> F  </i>
   <i type="logical" name="ODDONLYGW"> F  </i>
   <i type="logical" name="EVENONLYGW"> F  </i>
   <i type="int" name="NKREDLFX">     1</i>
   <i type="int" name="NKREDLFY">     1</i>
   <i type="int" name="NKREDLFZ">     1</i>
   <i type="int" name="MAXMEM">  1800</i>
   <i type="int" name="TELESCOPE">     0</i>
  </separator>
 </parameters>
 <atominfo>
  <atoms>     150 </atoms>
  <types>       2 </types>
  <array name="atoms" >
   <dimension dim="1">ion</dimension>
   <field type="string">element</field>
   <field type="int">atomtype</field>
   <set>
    <rc><c>Mo</c><c>   1</c></rc>
    <rc><c>Mo</c><c>   1</c></rc>
    <rc><c>Mo</c><c>   1</c></rc>
    <rc><c>Mo</c><c>   1</c></rc>
    <rc><c>Mo</c><c>   1</c></rc>
    <rc><c>Mo</c><c>   1</c></rc>
    <rc><c>Mo</c><c>   1</c></rc>
    <rc><c>Mo</c><c>   1</c></rc>
    <rc><c>Mo</c><c>   1</c></rc>
    <rc><c>Mo</c><c>   1</c></rc>
    <rc><c>Mo</c><c>   1</c></rc>
    <rc><c>Mo</c><c>   1</c></rc>
    <rc><c>Mo</c><c>   1</c></rc>
    <rc><c>Mo</c><c>   1</c></rc>
    <rc><c>Mo</c><c>   1</c></rc>
    <rc><c>Mo</c><c>   1</c></rc>
    <rc><c>Mo</c><c>   1</c></rc>
    <rc><c>Mo</c><c>   1</c></rc>
    <rc><c>Mo</c><c>   1</c></rc>
    <rc><c>Mo</c><c>   1</c></rc>
    <rc><c>Mo</c><c>   1</c></rc>
    <rc><c>Mo</c><c>   1</c></rc>
    <rc><c>Mo</c><c>   1</c></rc>
    <rc><c>Mo</c><c>   1</c></rc>
    <rc><c>Mo</c><c>   1</c></rc>
    <rc><c>Mo</c><c>   1</c></rc>
    <rc><c>Mo</c><c>   1</c></rc>
    <rc><c>Mo</c><c>   1</c></rc>
    <rc><c>Mo</c><c>   1</c></rc>
    <rc><c>Mo</c><c>   1</c></rc>
    <rc><c>Mo</c><c>   1</c></rc>
    <rc><c>Mo</c><c>   1</c></rc>
    <rc><c>Mo</c><c>   1</c></rc>
    <rc><c>Mo</c><c>   1</c></rc>
    <rc><c>Mo</c><c>   1</c></rc>
    <rc><c>Mo</c><c>   1</c></rc>
    <rc><c>Mo</c><c>   1</c></rc>
    <rc><c>Mo</c><c>   1</c></rc>
    <rc><c>Mo</c><c>   1</c></rc>
    <rc><c>Mo</c><c>   1</c></rc>
    <rc><c>Mo</c><c>   1</c></rc>
    <rc><c>Mo</c><c>   1</c></rc>
    <rc><c>Mo</c><c>   1</c></rc>
    <rc><c>Mo</c><c>   1</c></rc>
    <rc><c>Mo</c><c>   1</c></rc>
    <rc><c>Mo</c><c>   1</c></rc>
    <rc><c>Mo</c><c>   1</c></rc>
    <rc><c>Mo</c><c>   1</c></rc>
    <rc><c>Mo</c><c>   1</c></rc>
    <rc><c>Mo</c><c>   1</c></rc>
    <rc><c>S </c><c>   2</c></rc>
    <rc><c>S </c><c>   2</c></rc>
    <rc><c>S </c><c>   2</c></rc>
    <rc><c>S </c><c>   2</c></rc>
    <rc><c>S </c><c>   2</c></rc>
    <rc><c>S </c><c>   2</c></rc>
    <rc><c>S </c><c>   2</c></rc>
    <rc><c>S </c><c>   2</c></rc>
    <rc><c>S </c><c>   2</c></rc>
    <rc><c>S </c><c>   2</c></rc>
    <rc><c>S </c><c>   2</c></rc>
    <rc><c>S </c><c>   2</c></rc>
    <rc><c>S </c><c>   2</c></rc>
    <rc><c>S </c><c>   2</c></rc>
    <rc><c>S </c><c>   2</c></rc>
    <rc><c>S </c><c>   2</c></rc>
    <rc><c>S </c><c>   2</c></rc>
    <rc><c>S </c><c>   2</c></rc>
    <rc><c>S </c><c>   2</c></rc>
    <rc><c>S </c><c>   2</c></rc>
    <rc><c>S </c><c>   2</c></rc>
    <rc><c>S </c><c>   2</c></rc>
    <rc><c>S </c><c>   2</c></rc>
    <rc><c>S </c><c>   2</c></rc>
    <rc><c>S </c><c>   2</c></rc>
    <rc><c>S </c><c>   2</c></rc>
    <rc><c>S </c><c>   2</c></rc>
    <rc><c>S </c><c>   2</c></rc>
    <rc><c>S </c><c>   2</c></rc>
    <rc><c>S </c><c>   2</c></rc>
    <rc><c>S </c><c>   2</c></rc>
    <rc><c>S </c><c>   2</c></rc>
    <rc><c>S </c><c>   2</c></rc>
    <rc><c>S </c><c>   2</c></rc>
    <rc><c>S </c><c>   2</c></rc>
    <rc><c>S </c><c>   2</c></rc>
    <rc><c>S </c><c>   2</c></rc>
    <rc><c>S </c><c>   2</c></rc>
    <rc><c>S </c><c>   2</c></rc>
    <rc><c>S </c><c>   2</c></rc>
    <rc><c>S </c><c>   2</c></rc>
    <rc><c>S </c><c>   2</c></rc>
    <rc><c>S </c><c>   2</c></rc>
    <rc><c>S </c><c>   2</c></rc>
    <rc><c>S </c><c>   2</c></rc>
    <rc><c>S </c><c>   2</c></rc>
    <rc><c>S </c><c>   2</c></rc>
    <rc><c>S </c><c>   2</c></rc>
    <rc><c>S </c><c>   2</c></rc>
    <rc><c>S </c><c>   2</c></rc>
    <rc><c>S </c><c>   2</c></rc>
    <rc><c>S </c><c>   2</c></rc>
    <rc><c>S </c><c>   2</c></rc>
    <rc><c>S </c><c>   2</c></rc>
    <rc><c>S </c><c>   2</c></rc>
    <rc><c>S </c><c>   2</c></rc>
    <rc><c>S </c><c>   2</c></rc>
    <rc><c>S </c><c>   2</c></rc>
    <rc><c>S </c><c>   2</c></rc>
    <rc><c>S </c><c>   2</c></rc>
    <rc><c>S </c><c>   2</c></rc>
    <rc><c>S </c><c>   2</c></rc>
    <rc><c>S </c><c>   2</c></rc>
    <rc><c>S </c><c>   2</c></rc>
    <rc><c>S </c><c>   2</c></rc>
    <rc><c>S </c><c>   2</c></rc>
    <rc><c>S </c><c>   2</c></rc>
    <rc><c>S </c><c>   2</c></rc>
    <rc><c>S </c><c>   2</c></rc>
    <rc><c>S </c><c>   2</c></rc>
    <rc><c>S </c><c>   2</c></rc>
    <rc><c>S </c><c>   2</c></rc>
    <rc><c>S </c><c>   2</c></rc>
    <rc><c>S </c><c>   2</c></rc>
    <rc><c>S </c><c>   2</c></rc>
    <rc><c>S </c><c>   2</c></rc>
    <rc><c>S </c><c>   2</c></rc>
    <rc><c>S </c><c>   2</c></rc>
    <rc><c>S </c><c>   2</c></rc>
    <rc><c>S </c><c>   2</c></rc>
    <rc><c>S </c><c>   2</c></rc>
    <rc><c>S </c><c>   2</c></rc>
    <rc><c>S </c><c>   2</c></rc>
    <rc><c>S </c><c>   2</c></rc>
    <rc><c>S </c><c>   2</c></rc>
    <rc><c>S </c><c>   2</c></rc>
    <rc><c>S </c><c>   2</c></rc>
    <rc><c>S </c><c>   2</c></rc>
    <rc><c>S </c><c>   2</c></rc>
    <rc><c>S </c><c>   2</c></rc>
    <rc><c>S </c><c>   2</c></rc>
    <rc><c>S </c><c>   2</c></rc>
    <rc><c>S </c><c>   2</c></rc>
    <rc><c>S </c><c>   2</c></rc>
    <rc><c>S </c><c>   2</c></rc>
    <rc><c>S </c><c>   2</c></rc>
    <rc><c>S </c><c>   2</c></rc>
    <rc><c>S </c><c>   2</c></rc>
    <rc><c>S </c><c>   2</c></rc>
    <rc><c>S </c><c>   2</c></rc>
   </set>
  </array>
  <array name="atomtypes" >
   <dimension dim="1">type</dimension>
   <field type="int">atomspertype</field>
   <field type="string">element</field>
   <field>mass</field>
   <field>valence</field>
   <field type="string">pseudopotential</field>
   <set>
    <rc><c>  50</c><c>Mo</c><c>     95.94000000</c><c>     12.00000000</c><c> PAW Mo_pv 08Jan2002                    </c></rc>
    <rc><c> 100</c><c>S </c><c>     32.06600000</c><c>      6.00000000</c><c>  PAW S_h 21Jan2003                     </c></rc>
   </set>
  </array>
 </atominfo>
 <structure name="initialpos" >
  <crystal>
   <varray name="basis" >
    <v>      15.65451448      -0.00000001       0.00000000 </v>
    <v>      -7.82725475      13.55720592       0.00000000 </v>
    <v>       0.00000000       0.00000000      26.00697779 </v>
   </varray>
   <i name="volume">   5519.49928921 </i>
   <varray name="rec_basis" >
    <v>       0.06387934       0.03688074       0.00000000 </v>
    <v>       0.00000000       0.07376151       0.00000000 </v>
    <v>       0.00000000       0.00000000       0.03845122 </v>
   </varray>
  </crystal>
  <varray name="positions" >
   <v>       0.06633723       0.13333333       0.17271165 </v>
   <v>       0.26666667       0.13333333       0.17304109 </v>
   <v>       0.46666667       0.13333333       0.17304109 </v>
   <v>       0.66666667       0.13333333       0.17304109 </v>
   <v>       0.86666667       0.13333333       0.17304109 </v>
   <v>       0.06666667       0.33333333       0.17304109 </v>
   <v>       0.26666667       0.33333333       0.17304109 </v>
   <v>       0.46666667       0.33333333       0.17304109 </v>
   <v>       0.66666667       0.33333333       0.17304109 </v>
   <v>       0.86666667       0.33333333       0.17304109 </v>
   <v>       0.06666667       0.53333333       0.17304109 </v>
   <v>       0.26666667       0.53333333       0.17304109 </v>
   <v>       0.46666667       0.53333333       0.17304109 </v>
   <v>       0.66666667       0.53333333       0.17304109 </v>
   <v>       0.86666667       0.53333333       0.17304109 </v>
   <v>       0.06666667       0.73333333       0.17304109 </v>
   <v>       0.26666667       0.73333333       0.17304109 </v>
   <v>       0.46666667       0.73333333       0.17304109 </v>
   <v>       0.66666667       0.73333333       0.17304109 </v>
   <v>       0.86666667       0.73333333       0.17304109 </v>
   <v>       0.06666667       0.93333333       0.17304109 </v>
   <v>       0.26666667       0.93333333       0.17304109 </v>
   <v>       0.46666667       0.93333333       0.17304109 </v>
   <v>       0.66666667       0.93333333       0.17304109 </v>
   <v>       0.86666667       0.93333333       0.17304109 </v>
   <v>       0.13333333       0.06666667       0.40532935 </v>
   <v>       0.33333333       0.06666667       0.40532935 </v>
   <v>       0.53333333       0.06666667       0.40532935 </v>
   <v>       0.73333333       0.06666667       0.40532935 </v>
   <v>       0.93333333       0.06666667       0.40532935 </v>
   <v>       0.13333333       0.26666667       0.40532935 </v>
   <v>       0.33333333       0.26666667       0.40532935 </v>
   <v>       0.53333333       0.26666667       0.40532935 </v>
   <v>       0.73333333       0.26666667       0.40532935 </v>
   <v>       0.93333333       0.26666667       0.40532935 </v>
   <v>       0.13333333       0.46666667       0.40532935 </v>
   <v>       0.33333333       0.46666667       0.40532935 </v>
   <v>       0.53333333       0.46666667       0.40532935 </v>
   <v>       0.73333333       0.46666667       0.40532935 </v>
   <v>       0.93333333       0.46666667       0.40532935 </v>
   <v>       0.13333333       0.66666667       0.40532935 </v>
   <v>       0.33333333       0.66666667       0.40532935 </v>
   <v>       0.53333333       0.66666667       0.40532935 </v>
   <v>       0.73333333       0.66666667       0.40532935 </v>
   <v>       0.93333333       0.66666667       0.40532935 </v>
   <v>       0.13333333       0.86666667       0.40532935 </v>
   <v>       0.33333333       0.86666667       0.40532935 </v>
   <v>       0.53333333       0.86666667       0.40532935 </v>
   <v>       0.73333333       0.86666667       0.40532935 </v>
   <v>       0.93333333       0.86666667       0.40532935 </v>
   <v>       0.13333333       0.06666667       0.11318662 </v>
   <v>       0.33333333       0.06666667       0.11318662 </v>
   <v>       0.53333333       0.06666667       0.11318662 </v>
   <v>       0.73333333       0.06666667       0.11318662 </v>
   <v>       0.93333333       0.06666667       0.11318662 </v>
   <v>       0.13333333       0.26666667       0.11318662 </v>
   <v>       0.33333333       0.26666667       0.11318662 </v>
   <v>       0.53333333       0.26666667       0.11318662 </v>
   <v>       0.73333333       0.26666667       0.11318662 </v>
   <v>       0.93333333       0.26666667       0.11318662 </v>
   <v>       0.13333333       0.46666667       0.11318662 </v>
   <v>       0.33333333       0.46666667       0.11318662 </v>
   <v>       0.53333333       0.46666667       0.11318662 </v>
   <v>       0.73333333       0.46666667       0.11318662 </v>
   <v>       0.93333333       0.46666667       0.11318662 </v>
   <v>       0.13333333       0.66666667       0.11318662 </v>
   <v>       0.33333333       0.66666667       0.11318662 </v>
   <v>       0.53333333       0.66666667       0.11318662 </v>
   <v>       0.73333333       0.66666667       0.11318662 </v>
   <v>       0.93333333       0.66666667       0.11318662 </v>
   <v>       0.13333333       0.86666667       0.11318662 </v>
   <v>       0.33333333       0.86666667       0.11318662 </v>
   <v>       0.53333333       0.86666667       0.11318662 </v>
   <v>       0.73333333       0.86666667       0.11318662 </v>
   <v>       0.93333333       0.86666667       0.11318662 </v>
   <v>       0.13333333       0.06666667       0.23301500 </v>
   <v>       0.33333333       0.06666667       0.23301500 </v>
   <v>       0.53333333       0.06666667       0.23301500 </v>
   <v>       0.73333333       0.06666667       0.23301500 </v>
   <v>       0.93333333       0.06666667       0.23301500 </v>
   <v>       0.13333333       0.26666667       0.23301500 </v>
   <v>       0.33333333       0.26666667       0.23301500 </v>
   <v>       0.53333333       0.26666667       0.23301500 </v>
   <v>       0.73333333       0.26666667       0.23301500 </v>
   <v>       0.93333333       0.26666667       0.23301500 </v>
   <v>       0.13333333       0.46666667       0.23301500 </v>
   <v>       0.33333333       0.46666667       0.23301500 </v>
   <v>       0.53333333       0.46666667       0.23301500 </v>
   <v>       0.73333333       0.46666667       0.23301500 </v>
   <v>       0.93333333       0.46666667       0.23301500 </v>
   <v>       0.13333333       0.66666667       0.23301500 </v>
   <v>       0.33333333       0.66666667       0.23301500 </v>
   <v>       0.53333333       0.66666667       0.23301500 </v>
   <v>       0.73333333       0.66666667       0.23301500 </v>
   <v>       0.93333333       0.66666667       0.23301500 </v>
   <v>       0.13333333       0.86666667       0.23301500 </v>
   <v>       0.33333333       0.86666667       0.23301500 </v>
   <v>       0.53333333       0.86666667       0.23301500 </v>
   <v>       0.73333333       0.86666667       0.23301500 </v>
   <v>       0.93333333       0.86666667       0.23301500 </v>
   <v>       0.06666667       0.13333333       0.34535543 </v>
   <v>       0.26666667       0.13333333       0.34535543 </v>
   <v>       0.46666667       0.13333333       0.34535543 </v>
   <v>       0.66666667       0.13333333       0.34535543 </v>
   <v>       0.86666667       0.13333333       0.34535543 </v>
   <v>       0.06666667       0.33333333       0.34535543 </v>
   <v>       0.26666667       0.33333333       0.34535543 </v>
   <v>       0.46666667       0.33333333       0.34535543 </v>
   <v>       0.66666667       0.33333333       0.34535543 </v>
   <v>       0.86666667       0.33333333       0.34535543 </v>
   <v>       0.06666667       0.53333333       0.34535543 </v>
   <v>       0.26666667       0.53333333       0.34535543 </v>
   <v>       0.46666667       0.53333333       0.34535543 </v>
   <v>       0.66666667       0.53333333       0.34535543 </v>
   <v>       0.86666667       0.53333333       0.34535543 </v>
   <v>       0.06666667       0.73333333       0.34535543 </v>
   <v>       0.26666667       0.73333333       0.34535543 </v>
   <v>       0.46666667       0.73333333       0.34535543 </v>
   <v>       0.66666667       0.73333333       0.34535543 </v>
   <v>       0.86666667       0.73333333       0.34535543 </v>
   <v>       0.06666667       0.93333333       0.34535543 </v>
   <v>       0.26666667       0.93333333       0.34535543 </v>
   <v>       0.46666667       0.93333333       0.34535543 </v>
   <v>       0.66666667       0.93333333       0.34535543 </v>
   <v>       0.86666667       0.93333333       0.34535543 </v>
   <v>       0.06666667       0.13333333       0.46518382 </v>
   <v>       0.26666667       0.13333333       0.46518382 </v>
   <v>       0.46666667       0.13333333       0.46518382 </v>
   <v>       0.66666667       0.13333333       0.46518382 </v>
   <v>       0.86666667       0.13333333       0.46518382 </v>
   <v>       0.06666667       0.33333333       0.46518382 </v>
   <v>       0.26666667       0.33333333       0.46518382 </v>
   <v>       0.46666667       0.33333333       0.46518382 </v>
   <v>       0.66666667       0.33333333       0.46518382 </v>
   <v>       0.86666667       0.33333333       0.46518382 </v>
   <v>       0.06666667       0.53333333       0.46518382 </v>
   <v>       0.26666667       0.53333333       0.46518382 </v>
   <v>       0.46666667       0.53333333       0.46518382 </v>
   <v>       0.66666667       0.53333333       0.46518382 </v>
   <v>       0.86666667       0.53333333       0.46518382 </v>
   <v>       0.06666667       0.73333333       0.46518382 </v>
   <v>       0.26666667       0.73333333       0.46518382 </v>
   <v>       0.46666667       0.73333333       0.46518382 </v>
   <v>       0.66666667       0.73333333       0.46518382 </v>
   <v>       0.86666667       0.73333333       0.46518382 </v>
   <v>       0.06666667       0.93333333       0.46518382 </v>
   <v>       0.26666667       0.93333333       0.46518382 </v>
   <v>       0.46666667       0.93333333       0.46518382 </v>
   <v>       0.66666667       0.93333333       0.46518382 </v>
   <v>       0.86666667       0.93333333       0.46518382 </v>
  </varray>
 </structure>
 <calculation>
  <scstep>
   <time name="dav">******** 1583.83</time>
   <time name="total">******** 1588.51</time>
   <energy>
    <i name="alphaZ">   2096.25038681 </i>
    <i name="ewald"> 360960.70686875 </i>
    <i name="hartreedc">-445119.47280643 </i>
    <i name="XCdc">   2153.01740011 </i>
    <i name="pawpsdc">  49961.83574437 </i>
    <i name="pawaedc"> -47918.29686678 </i>
    <i name="eentropy">     -0.00287065 </i>
    <i name="bandstr">  -3160.38256168 </i>
    <i name="atom">  92113.52951886 </i>
    <i name="e_fr_energy">  11087.18481336 </i>
    <i name="e_wo_entrp">  11087.18768401 </i>
    <i name="e_0_energy">  11087.18624868 </i>
   </energy>
  </scstep>
  <scstep>
   <time name="dav">******** 1648.04</time>
   <time name="total"> 1648.23 1648.23</time>
   <energy>
    <i name="e_fr_energy">   -269.34424042 </i>
    <i name="e_wo_entrp">   -269.34424042 </i>
    <i name="e_0_energy">   -269.34424042 </i>
   </energy>
  </scstep>
  <scstep>
   <time name="dav">******** 1639.75</time>
   <time name="total"> 1639.96 1639.96</time>
   <energy>
    <i name="e_fr_energy">  -1231.92895285 </i>
    <i name="e_wo_entrp">  -1231.92895285 </i>
    <i name="e_0_energy">  -1231.92895285 </i>
   </energy>
  </scstep>
  <scstep>
   <time name="dav">******** 1810.11</time>
   <time name="total"> 1810.33 1810.33</time>
   <energy>
    <i name="e_fr_energy">  -1284.11353656 </i>
    <i name="e_wo_entrp">  -1284.11353656 </i>
    <i name="e_0_energy">  -1284.11353656 </i>
   </energy>
  </scstep>
  <scstep>
   <time name="dav">******** 1986.94</time>
   <time name="total">85762.93 2068.09</time>
   <energy>
    <i name="e_fr_energy">  -1286.12746377 </i>
    <i name="e_wo_entrp">  -1286.12746377 </i>
    <i name="e_0_energy">  -1286.12746377 </i>
   </energy>
  </scstep>
  <scstep>
   <time name="dav">******** 1801.41</time>
   <time name="total"> 1886.99 1886.99</time>
   <energy>
    <i name="e_fr_energy">  -1231.42123957 </i>
    <i name="e_wo_entrp">  -1231.42123957 </i>
    <i name="e_0_energy">  -1231.42123957 </i>
   </energy>
  </scstep>
  <scstep>
   <time name="dav">******** 1764.48</time>
   <time name="total"> 1850.05 1850.05</time>
   <energy>
    <i name="e_fr_energy">  -1216.81723339 </i>
    <i name="e_wo_entrp">  -1216.81723339 </i>
    <i name="e_0_energy">  -1216.81723339 </i>
   </energy>
  </scstep>
  <scstep>
   <time name="dav">******** 1664.11</time>
   <time name="total"> 1749.61 1749.61</time>
   <energy>
    <i name="e_fr_energy">  -1214.54664269 </i>
    <i name="e_wo_entrp">  -1214.54664269 </i>
    <i name="e_0_energy">  -1214.54664269 </i>
   </energy>
  </scstep>
  <scstep>
   <time name="dav">******** 1934.79</time>
   <time name="total"> 2020.16 2020.16</time>
   <energy>
    <i name="e_fr_energy">  -1214.46692320 </i>
    <i name="e_wo_entrp">  -1214.46692320 </i>
    <i name="e_0_energy">  -1214.46692320 </i>
   </energy>
  </scstep>
  <scstep>
   <time name="dav">******** 1805.83</time>
   <time name="total"> 1891.49 1891.49</time>
   <energy>
    <i name="e_fr_energy">  -1214.41161854 </i>
    <i name="e_wo_entrp">  -1214.41161854 </i>
    <i name="e_0_energy">  -1214.41161854 </i>
   </energy>
  </scstep>
  <scstep>
   <time name="dav">******** 1782.43</time>
   <time name="total"> 1868.32 1868.32</time>
   <energy>
    <i name="e_fr_energy">  -1214.40476067 </i>
    <i name="e_wo_entrp">  -1214.40476067 </i>
    <i name="e_0_energy">  -1214.40476067 </i>
   </energy>
  </scstep>
  <scstep>
   <time name="dav">******** 1736.03</time>
   <time name="total"> 1822.40 1822.40</time>
   <energy>
    <i name="e_fr_energy">  -1214.40594281 </i>
    <i name="e_wo_entrp">  -1214.40594281 </i>
    <i name="e_0_energy">  -1214.40594281 </i>
   </energy>
  </scstep>
  <scstep>
   <time name="dav">******** 1668.08</time>
   <time name="total"> 1753.51 1753.51</time>
   <energy>
    <i name="e_fr_energy">  -1214.41006587 </i>
    <i name="e_wo_entrp">  -1214.41006587 </i>
    <i name="e_0_energy">  -1214.41006587 </i>
   </energy>
  </scstep>
  <scstep>
   <time name="dav">******** 1647.52</time>
   <time name="total"> 1732.89 1732.89</time>
   <energy>
    <i name="e_fr_energy">  -1214.41400110 </i>
    <i name="e_wo_entrp">  -1214.41400110 </i>
    <i name="e_0_energy">  -1214.41400110 </i>
   </energy>
  </scstep>
  <scstep>
   <time name="dav">******** 1765.26</time>
   <time name="total"> 1850.64 1850.64</time>
   <energy>
    <i name="e_fr_energy">  -1214.41743502 </i>
    <i name="e_wo_entrp">  -1214.41743502 </i>
    <i name="e_0_energy">  -1214.41743502 </i>
   </energy>
  </scstep>
  <scstep>
   <time name="dav">******** 1670.25</time>
   <time name="total"> 1756.59 1756.59</time>
   <energy>
    <i name="e_fr_energy">  -1214.42054427 </i>
    <i name="e_wo_entrp">  -1214.42054427 </i>
    <i name="e_0_energy">  -1214.42054427 </i>
   </energy>
  </scstep>
  <scstep>
   <time name="dav">******** 1608.19</time>
   <time name="total"> 1694.40 1694.40</time>
   <energy>
    <i name="e_fr_energy">  -1214.42303797 </i>
    <i name="e_wo_entrp">  -1214.42303797 </i>
    <i name="e_0_energy">  -1214.42303797 </i>
   </energy>
  </scstep>
  <scstep>
   <time name="dav">******** 1677.42</time>
   <time name="total"> 1763.71 1763.71</time>
   <energy>
    <i name="e_fr_energy">  -1214.42396099 </i>
    <i name="e_wo_entrp">  -1214.42396099 </i>
    <i name="e_0_energy">  -1214.42396099 </i>
   </energy>
  </scstep>
  <scstep>
   <time name="dav">******** 1601.17</time>
   <time name="total"> 1687.41 1687.41</time>
   <energy>
    <i name="e_fr_energy">  -1214.42460167 </i>
    <i name="e_wo_entrp">  -1214.42460167 </i>
    <i name="e_0_energy">  -1214.42460167 </i>
   </energy>
  </scstep>
  <scstep>
   <time name="dav">******** 1605.04</time>
   <time name="total"> 1691.39 1691.39</time>
   <energy>
    <i name="e_fr_energy">  -1214.42492476 </i>
    <i name="e_wo_entrp">  -1214.42492476 </i>
    <i name="e_0_energy">  -1214.42492476 </i>
   </energy>
  </scstep>
  <scstep>
   <time name="dav">******** 1599.29</time>
   <time name="total"> 1684.83 1684.83</time>
   <energy>
    <i name="e_fr_energy">  -1214.42502613 </i>
    <i name="e_wo_entrp">  -1214.42502613 </i>
    <i name="e_0_energy">  -1214.42502613 </i>
   </energy>
  </scstep>
  <scstep>
   <time name="dav">******** 1632.11</time>
   <time name="total"> 1717.23 1717.23</time>
   <energy>
    <i name="e_fr_energy">  -1214.42512554 </i>
    <i name="e_wo_entrp">  -1214.42512554 </i>
    <i name="e_0_energy">  -1214.42512554 </i>
   </energy>
  </scstep>
  <scstep>
   <time name="dav">******** 1599.62</time>
   <time name="total"> 1684.65 1684.65</time>
   <energy>
    <i name="e_fr_energy">  -1214.42526872 </i>
    <i name="e_wo_entrp">  -1214.42526872 </i>
    <i name="e_0_energy">  -1214.42526872 </i>
   </energy>
  </scstep>
  <scstep>
   <time name="dav">******** 1607.39</time>
   <time name="total"> 1692.93 1692.93</time>
   <energy>
    <i name="e_fr_energy">  -1214.42541189 </i>
    <i name="e_wo_entrp">  -1214.42541189 </i>
    <i name="e_0_energy">  -1214.42541189 </i>
   </energy>
  </scstep>
  <scstep>
   <time name="dav">******** 1558.86</time>
   <time name="total"> 1643.94 1643.94</time>
   <energy>
    <i name="e_fr_energy">  -1214.42548018 </i>
    <i name="e_wo_entrp">  -1214.42548018 </i>
    <i name="e_0_energy">  -1214.42548018 </i>
   </energy>
  </scstep>
  <scstep>
   <time name="dav">******** 1488.69</time>
   <time name="total"> 1573.74 1573.74</time>
   <energy>
    <i name="e_fr_energy">  -1214.42552602 </i>
    <i name="e_wo_entrp">  -1214.42552602 </i>
    <i name="e_0_energy">  -1214.42552602 </i>
   </energy>
  </scstep>
  <scstep>
   <time name="dav">******** 1528.86</time>
   <time name="total"> 1613.95 1613.95</time>
   <energy>
    <i name="e_fr_energy">  -1214.42555732 </i>
    <i name="e_wo_entrp">  -1214.42555732 </i>
    <i name="e_0_energy">  -1214.42555732 </i>
   </energy>
  </scstep>
  <scstep>
   <time name="dav">******** 1372.43</time>
   <time name="total"> 1457.71 1457.71</time>
   <energy>
    <i name="e_fr_energy">  -1214.42556791 </i>
    <i name="e_wo_entrp">  -1214.42556791 </i>
    <i name="e_0_energy">  -1214.42556791 </i>
   </energy>
  </scstep>
  <scstep>
   <time name="dav">******** 1342.98</time>
   <time name="total"> 1428.09 1428.09</time>
   <energy>
    <i name="e_fr_energy">  -1214.42557276 </i>
    <i name="e_wo_entrp">  -1214.42557276 </i>
    <i name="e_0_energy">  -1214.42557276 </i>
   </energy>
  </scstep>
  <scstep>
   <time name="dav">******** 1218.93</time>
   <time name="total"> 1304.02 1304.02</time>
   <energy>
    <i name="e_fr_energy">  -1214.42557330 </i>
    <i name="e_wo_entrp">  -1214.42557330 </i>
    <i name="e_0_energy">  -1214.42557330 </i>
   </energy>
  </scstep>
  <scstep>
   <time name="dav">******** 1127.77</time>
   <time name="total"> 1213.00 1213.00</time>
   <energy>
    <i name="e_fr_energy">  -1214.42557354 </i>
    <i name="e_wo_entrp">  -1214.42557354 </i>
    <i name="e_0_energy">  -1214.42557354 </i>
   </energy>
  </scstep>
  <scstep>
   <time name="dav">******** 1153.55</time>
   <time name="total"> 1238.77 1238.77</time>
   <energy>
    <i name="e_fr_energy">  -1214.42557375 </i>
    <i name="e_wo_entrp">  -1214.42557375 </i>
    <i name="e_0_energy">  -1214.42557375 </i>
   </energy>
  </scstep>
  <scstep>
   <time name="dav">******** 1098.99</time>
   <time name="total"> 1184.45 1184.45</time>
   <energy>
    <i name="e_fr_energy">  -1214.42557381 </i>
    <i name="e_wo_entrp">  -1214.42557381 </i>
    <i name="e_0_energy">  -1214.42557381 </i>
   </energy>
  </scstep>
  <scstep>
   <time name="dav">******** 1074.75</time>
   <time name="total"> 1160.07 1160.07</time>
   <energy>
    <i name="e_fr_energy">  -1214.42557382 </i>
    <i name="e_wo_entrp">  -1214.42557382 </i>
    <i name="e_0_energy">  -1214.42557382 </i>
   </energy>
  </scstep>
  <scstep>
   <time name="dav">******** 1052.47</time>
   <time name="total">******** 1057.06</time>
   <energy>
    <i name="alphaZ">   2096.25038681 </i>
    <i name="ewald"> 360960.70686875 </i>
    <i name="hartreedc">-444992.05104235 </i>
    <i name="XCdc">   2130.73731478 </i>
    <i name="pawpsdc">  53564.93096856 </i>
    <i name="pawaedc"> -51761.77104918 </i>
    <i name="eentropy">      0.00000000 </i>
    <i name="bandstr"> -15326.75854005 </i>
    <i name="atom">  92113.52951886 </i>
    <i name="e_fr_energy">  -1214.42557383 </i>
    <i name="e_wo_entrp">  -1214.42557383 </i>
    <i name="e_0_energy">  -1214.42557383 </i>
   </energy>
  </scstep>
  <structure>
   <crystal>
    <varray name="basis" >
     <v>      15.65451448      -0.00000001       0.00000000 </v>
     <v>      -7.82725475      13.55720592       0.00000000 </v>
     <v>       0.00000000       0.00000000      26.00697779 </v>
    </varray>
    <i name="volume">   5519.49928921 </i>
    <varray name="rec_basis" >
     <v>       0.06387934       0.03688074       0.00000000 </v>
     <v>       0.00000000       0.07376151       0.00000000 </v>
     <v>       0.00000000       0.00000000       0.03845122 </v>
    </varray>
   </crystal>
   <varray name="positions" >
    <v>       0.06633723       0.13333333       0.17271165 </v>
    <v>       0.26666667       0.13333333       0.17304109 </v>
    <v>       0.46666667       0.13333333       0.17304109 </v>
    <v>       0.66666667       0.13333333       0.17304109 </v>
    <v>       0.86666667       0.13333333       0.17304109 </v>
    <v>       0.06666667       0.33333333       0.17304109 </v>
    <v>       0.26666667       0.33333333       0.17304109 </v>
    <v>       0.46666667       0.33333333       0.17304109 </v>
    <v>       0.66666667       0.33333333       0.17304109 </v>
    <v>       0.86666667       0.33333333       0.17304109 </v>
    <v>       0.06666667       0.53333333       0.17304109 </v>
    <v>       0.26666667       0.53333333       0.17304109 </v>
    <v>       0.46666667       0.53333333       0.17304109 </v>
    <v>       0.66666667       0.53333333       0.17304109 </v>
    <v>       0.86666667       0.53333333       0.17304109 </v>
    <v>       0.06666667       0.73333333       0.17304109 </v>
    <v>       0.26666667       0.73333333       0.17304109 </v>
    <v>       0.46666667       0.73333333       0.17304109 </v>
    <v>       0.66666667       0.73333333       0.17304109 </v>
    <v>       0.86666667       0.73333333       0.17304109 </v>
    <v>       0.06666667       0.93333333       0.17304109 </v>
    <v>       0.26666667       0.93333333       0.17304109 </v>
    <v>       0.46666667       0.93333333       0.17304109 </v>
    <v>       0.66666667       0.93333333       0.17304109 </v>
    <v>       0.86666667       0.93333333       0.17304109 </v>
    <v>       0.13333333       0.06666667       0.40532935 </v>
    <v>       0.33333333       0.06666667       0.40532935 </v>
    <v>       0.53333333       0.06666667       0.40532935 </v>
    <v>       0.73333333       0.06666667       0.40532935 </v>
    <v>       0.93333333       0.06666667       0.40532935 </v>
    <v>       0.13333333       0.26666667       0.40532935 </v>
    <v>       0.33333333       0.26666667       0.40532935 </v>
    <v>       0.53333333       0.26666667       0.40532935 </v>
    <v>       0.73333333       0.26666667       0.40532935 </v>
    <v>       0.93333333       0.26666667       0.40532935 </v>
    <v>       0.13333333       0.46666667       0.40532935 </v>
    <v>       0.33333333       0.46666667       0.40532935 </v>
    <v>       0.53333333       0.46666667       0.40532935 </v>
    <v>       0.73333333       0.46666667       0.40532935 </v>
    <v>       0.93333333       0.46666667       0.40532935 </v>
    <v>       0.13333333       0.66666667       0.40532935 </v>
    <v>       0.33333333       0.66666667       0.40532935 </v>
    <v>       0.53333333       0.66666667       0.40532935 </v>
    <v>       0.73333333       0.66666667       0.40532935 </v>
    <v>       0.93333333       0.66666667       0.40532935 </v>
    <v>       0.13333333       0.86666667       0.40532935 </v>
    <v>       0.33333333       0.86666667       0.40532935 </v>
    <v>       0.53333333       0.86666667       0.40532935 </v>
    <v>       0.73333333       0.86666667       0.40532935 </v>
    <v>       0.93333333       0.86666667       0.40532935 </v>
    <v>       0.13333333       0.06666667       0.11318662 </v>
    <v>       0.33333333       0.06666667       0.11318662 </v>
    <v>       0.53333333       0.06666667       0.11318662 </v>
    <v>       0.73333333       0.06666667       0.11318662 </v>
    <v>       0.93333333       0.06666667       0.11318662 </v>
    <v>       0.13333333       0.26666667       0.11318662 </v>
    <v>       0.33333333       0.26666667       0.11318662 </v>
    <v>       0.53333333       0.26666667       0.11318662 </v>
    <v>       0.73333333       0.26666667       0.11318662 </v>
    <v>       0.93333333       0.26666667       0.11318662 </v>
    <v>       0.13333333       0.46666667       0.11318662 </v>
    <v>       0.33333333       0.46666667       0.11318662 </v>
    <v>       0.53333333       0.46666667       0.11318662 </v>
    <v>       0.73333333       0.46666667       0.11318662 </v>
    <v>       0.93333333       0.46666667       0.11318662 </v>
    <v>       0.13333333       0.66666667       0.11318662 </v>
    <v>       0.33333333       0.66666667       0.11318662 </v>
    <v>       0.53333333       0.66666667       0.11318662 </v>
    <v>       0.73333333       0.66666667       0.11318662 </v>
    <v>       0.93333333       0.66666667       0.11318662 </v>
    <v>       0.13333333       0.86666667       0.11318662 </v>
    <v>       0.33333333       0.86666667       0.11318662 </v>
    <v>       0.53333333       0.86666667       0.11318662 </v>
    <v>       0.73333333       0.86666667       0.11318662 </v>
    <v>       0.93333333       0.86666667       0.11318662 </v>
    <v>       0.13333333       0.06666667       0.23301500 </v>
    <v>       0.33333333       0.06666667       0.23301500 </v>
    <v>       0.53333333       0.06666667       0.23301500 </v>
    <v>       0.73333333       0.06666667       0.23301500 </v>
    <v>       0.93333333       0.06666667       0.23301500 </v>
    <v>       0.13333333       0.26666667       0.23301500 </v>
    <v>       0.33333333       0.26666667       0.23301500 </v>
    <v>       0.53333333       0.26666667       0.23301500 </v>
    <v>       0.73333333       0.26666667       0.23301500 </v>
    <v>       0.93333333       0.26666667       0.23301500 </v>
    <v>       0.13333333       0.46666667       0.23301500 </v>
    <v>       0.33333333       0.46666667       0.23301500 </v>
    <v>       0.53333333       0.46666667       0.23301500 </v>
    <v>       0.73333333       0.46666667       0.23301500 </v>
    <v>       0.93333333       0.46666667       0.23301500 </v>
    <v>       0.13333333       0.66666667       0.23301500 </v>
    <v>       0.33333333       0.66666667       0.23301500 </v>
    <v>       0.53333333       0.66666667       0.23301500 </v>
    <v>       0.73333333       0.66666667       0.23301500 </v>
    <v>       0.93333333       0.66666667       0.23301500 </v>
    <v>       0.13333333       0.86666667       0.23301500 </v>
    <v>       0.33333333       0.86666667       0.23301500 </v>
    <v>       0.53333333       0.86666667       0.23301500 </v>
    <v>       0.73333333       0.86666667       0.23301500 </v>
    <v>       0.93333333       0.86666667       0.23301500 </v>
    <v>       0.06666667       0.13333333       0.34535543 </v>
    <v>       0.26666667       0.13333333       0.34535543 </v>
    <v>       0.46666667       0.13333333       0.34535543 </v>
    <v>       0.66666667       0.13333333       0.34535543 </v>
    <v>       0.86666667       0.13333333       0.34535543 </v>
    <v>       0.06666667       0.33333333       0.34535543 </v>
    <v>       0.26666667       0.33333333       0.34535543 </v>
    <v>       0.46666667       0.33333333       0.34535543 </v>
    <v>       0.66666667       0.33333333       0.34535543 </v>
    <v>       0.86666667       0.33333333       0.34535543 </v>
    <v>       0.06666667       0.53333333       0.34535543 </v>
    <v>       0.26666667       0.53333333       0.34535543 </v>
    <v>       0.46666667       0.53333333       0.34535543 </v>
    <v>       0.66666667       0.53333333       0.34535543 </v>
    <v>       0.86666667       0.53333333       0.34535543 </v>
    <v>       0.06666667       0.73333333       0.34535543 </v>
    <v>       0.26666667       0.73333333       0.34535543 </v>
    <v>       0.46666667       0.73333333       0.34535543 </v>
    <v>       0.66666667       0.73333333       0.34535543 </v>
    <v>       0.86666667       0.73333333       0.34535543 </v>
    <v>       0.06666667       0.93333333       0.34535543 </v>
    <v>       0.26666667       0.93333333       0.34535543 </v>
    <v>       0.46666667       0.93333333       0.34535543 </v>
    <v>       0.66666667       0.93333333       0.34535543 </v>
    <v>       0.86666667       0.93333333       0.34535543 </v>
    <v>       0.06666667       0.13333333       0.46518382 </v>
    <v>       0.26666667       0.13333333       0.46518382 </v>
    <v>       0.46666667       0.13333333       0.46518382 </v>
    <v>       0.66666667       0.13333333       0.46518382 </v>
    <v>       0.86666667       0.13333333       0.46518382 </v>
    <v>       0.06666667       0.33333333       0.46518382 </v>
    <v>       0.26666667       0.33333333       0.46518382 </v>
    <v>       0.46666667       0.33333333       0.46518382 </v>
    <v>       0.66666667       0.33333333       0.46518382 </v>
    <v>       0.86666667       0.33333333       0.46518382 </v>
    <v>       0.06666667       0.53333333       0.46518382 </v>
    <v>       0.26666667       0.53333333       0.46518382 </v>
    <v>       0.46666667       0.53333333       0.46518382 </v>
    <v>       0.66666667       0.53333333       0.46518382 </v>
    <v>       0.86666667       0.53333333       0.46518382 </v>
    <v>       0.06666667       0.73333333       0.46518382 </v>
    <v>       0.26666667       0.73333333       0.46518382 </v>
    <v>       0.46666667       0.73333333       0.46518382 </v>
    <v>       0.66666667       0.73333333       0.46518382 </v>
    <v>       0.86666667       0.73333333       0.46518382 </v>
    <v>       0.06666667       0.93333333       0.46518382 </v>
    <v>       0.26666667       0.93333333       0.46518382 </v>
    <v>       0.46666667       0.93333333       0.46518382 </v>
    <v>       0.66666667       0.93333333       0.46518382 </v>
    <v>       0.86666667       0.93333333       0.46518382 </v>
   </varray>
  </structure>
  <varray name="forces" >
   <v>       0.13961470       0.00027512       0.24651267 </v>
   <v>      -0.00642831       0.00601934       0.00607579 </v>
   <v>      -0.00080065      -0.00009133       0.00012934 </v>
   <v>      -0.00085260       0.00006969       0.00014419 </v>
   <v>      -0.00645515      -0.00613119       0.00580237 </v>
   <v>      -0.00276253       0.00809652       0.00585206 </v>
   <v>      -0.00289318      -0.00821817       0.00603352 </v>
   <v>      -0.00018540       0.00049268       0.00040600 </v>
   <v>      -0.00000196      -0.00004026       0.00067790 </v>
   <v>      -0.00026891      -0.00047212       0.00042214 </v>
   <v>       0.00004502       0.00044665       0.00014538 </v>
   <v>      -0.00106328       0.00002644       0.00039955 </v>
   <v>       0.00003561      -0.00039354       0.00011586 </v>
   <v>      -0.00003306       0.00001640       0.00066910 </v>
   <v>       0.00001661       0.00000912       0.00069612 </v>
   <v>       0.00006849       0.00057228       0.00012949 </v>
   <v>       0.00000874       0.00001167       0.00068817 </v>
   <v>      -0.00002505       0.00001903       0.00064632 </v>
   <v>       0.00001234      -0.00058957       0.00011486 </v>
   <v>      -0.00106273      -0.00004065       0.00039712 </v>
   <v>      -0.00283053      -0.00391319       0.00599304 </v>
   <v>      -0.00019899      -0.00049449       0.00038153 </v>
   <v>      -0.00000178      -0.00002028       0.00067652 </v>
   <v>      -0.00025420       0.00047166       0.00042000 </v>
   <v>      -0.00282964       0.00406541       0.00590110 </v>
   <v>      -0.00021809       0.00011969      -0.00080475 </v>
   <v>       0.00003313      -0.00005240      -0.00067767 </v>
   <v>       0.00000203       0.00002618      -0.00075009 </v>
   <v>      -0.00004950      -0.00006137      -0.00072400 </v>
   <v>       0.00022832       0.00015066      -0.00053534 </v>
   <v>      -0.00002162      -0.00026133      -0.00065593 </v>
   <v>      -0.00004971      -0.00006132      -0.00083727 </v>
   <v>      -0.00000980      -0.00000713      -0.00071845 </v>
   <v>       0.00000362      -0.00001715      -0.00071814 </v>
   <v>       0.00001677       0.00003647      -0.00079868 </v>
   <v>       0.00000590       0.00005298      -0.00069159 </v>
   <v>      -0.00005193       0.00008059      -0.00072271 </v>
   <v>      -0.00000732       0.00000808      -0.00073529 </v>
   <v>      -0.00000022       0.00000841      -0.00070833 </v>
   <v>       0.00001060       0.00000358      -0.00072562 </v>
   <v>      -0.00002898      -0.00002088      -0.00075684 </v>
   <v>       0.00001679       0.00000454      -0.00074539 </v>
   <v>       0.00000467      -0.00000464      -0.00072887 </v>
   <v>      -0.00001977       0.00000339      -0.00072139 </v>
   <v>       0.00000580       0.00000899      -0.00071198 </v>
   <v>       0.00003479      -0.00001619      -0.00065798 </v>
   <v>       0.00002276      -0.00000669      -0.00075466 </v>
   <v>       0.00000984      -0.00000717      -0.00075847 </v>
   <v>      -0.00009780       0.00000030      -0.00073543 </v>
   <v>       0.00006841       0.00002909      -0.00082857 </v>
   <v>       0.00547840      -0.00806386      -0.02522234 </v>
   <v>       0.00020173      -0.00044531      -0.00032566 </v>
   <v>      -0.00007463       0.00002432       0.00043231 </v>
   <v>      -0.00094906       0.00055916      -0.00021904 </v>
   <v>      -0.05431412      -0.02646844      -0.05968889 </v>
   <v>      -0.00847944       0.03440253      -0.04232053 </v>
   <v>       0.00125897      -0.00059329      -0.00126919 </v>
   <v>       0.00022176       0.00006891       0.00044687 </v>
   <v>      -0.00012258      -0.00012662       0.00053415 </v>
   <v>      -0.00189491       0.00241642      -0.00191231 </v>
   <v>      -0.00066331       0.00026834      -0.00020318 </v>
   <v>       0.00001721       0.00065241      -0.00033158 </v>
   <v>       0.00014909       0.00017511       0.00041862 </v>
   <v>       0.00002680      -0.00000227       0.00045899 </v>
   <v>       0.00002108       0.00014367       0.00056063 </v>
   <v>      -0.00003913       0.00002798       0.00037114 </v>
   <v>       0.00003272      -0.00000890       0.00036721 </v>
   <v>       0.00001987      -0.00004711       0.00049233 </v>
   <v>      -0.00013796      -0.00012190       0.00046188 </v>
   <v>       0.00007611      -0.00014249       0.00051654 </v>
   <v>       0.00015631      -0.00012944      -0.00025752 </v>
   <v>       0.00003845       0.00000553       0.00038891 </v>
   <v>       0.00006738       0.00002885       0.00034831 </v>
   <v>      -0.00031579      -0.00091133      -0.00027932 </v>
   <v>       0.00228858      -0.00181391      -0.00158851 </v>
   <v>      -0.05068428       0.02442668      -0.05594308 </v>
   <v>      -0.00089786      -0.00046002       0.00007239 </v>
   <v>      -0.00004999      -0.00002289       0.00074235 </v>
   <v>       0.00023510       0.00052492      -0.00009857 </v>
   <v>       0.00488893       0.00765424      -0.02387736 </v>
   <v>      -0.00837263      -0.03219595      -0.04003085 </v>
   <v>      -0.00198010      -0.00248643      -0.00150371 </v>
   <v>      -0.00010533       0.00016816       0.00086997 </v>
   <v>       0.00022037      -0.00003874       0.00074928 </v>
   <v>       0.00144013       0.00050840      -0.00064882 </v>
   <v>      -0.00001790      -0.00073618      -0.00008579 </v>
   <v>      -0.00052604      -0.00029053       0.00004172 </v>
   <v>       0.00005713      -0.00017450       0.00088658 </v>
   <v>       0.00001285      -0.00000268       0.00075693 </v>
   <v>       0.00009364      -0.00018601       0.00072332 </v>
   <v>       0.00001754       0.00004626       0.00079171 </v>
   <v>       0.00001317       0.00002797       0.00068313 </v>
   <v>      -0.00001622      -0.00001226       0.00068772 </v>
   <v>       0.00011588       0.00014455       0.00082746 </v>
   <v>      -0.00017207       0.00007786       0.00078484 </v>
   <v>      -0.00038387       0.00089265       0.00000736 </v>
   <v>       0.00005818      -0.00001806       0.00064948 </v>
   <v>       0.00002274       0.00001346       0.00071600 </v>
   <v>       0.00024750       0.00007447      -0.00003615 </v>
   <v>       0.00232396       0.00198283      -0.00107631 </v>
   <v>      -0.00019053      -0.00000199      -0.00002236 </v>
   <v>      -0.00006886      -0.00018098      -0.00110178 </v>
   <v>      -0.00002860      -0.00002804      -0.00075413 </v>
   <v>       0.00001177      -0.00002764      -0.00074265 </v>
   <v>       0.00001874      -0.00010598      -0.00101336 </v>
   <v>       0.00006186       0.00004494      -0.00110807 </v>
   <v>      -0.00022616       0.00003049      -0.00101413 </v>
   <v>      -0.00000090      -0.00000704      -0.00066662 </v>
   <v>       0.00000829       0.00000278      -0.00076367 </v>
   <v>       0.00006935      -0.00002002      -0.00071402 </v>
   <v>       0.00003094      -0.00001231      -0.00074258 </v>
   <v>       0.00000490      -0.00007425      -0.00073915 </v>
   <v>      -0.00002458       0.00001161      -0.00075204 </v>
   <v>      -0.00000235       0.00001321      -0.00075092 </v>
   <v>       0.00000437       0.00000482      -0.00076460 </v>
   <v>      -0.00000233       0.00004029      -0.00075282 </v>
   <v>       0.00000078       0.00000135      -0.00072622 </v>
   <v>       0.00000637      -0.00000804      -0.00073353 </v>
   <v>      -0.00002327       0.00000805      -0.00075090 </v>
   <v>       0.00002296       0.00003388      -0.00069069 </v>
   <v>       0.00008618       0.00006697      -0.00114831 </v>
   <v>      -0.00007390       0.00003908      -0.00078329 </v>
   <v>      -0.00000455      -0.00000323      -0.00072712 </v>
   <v>       0.00006058       0.00002573      -0.00069785 </v>
   <v>      -0.00011588       0.00013562      -0.00096614 </v>
   <v>      -0.00000937      -0.00000417      -0.00034004 </v>
   <v>      -0.00001227       0.00002718      -0.00043453 </v>
   <v>      -0.00000236      -0.00000113      -0.00041853 </v>
   <v>       0.00000134       0.00000035      -0.00041454 </v>
   <v>       0.00000756       0.00000629      -0.00043375 </v>
   <v>      -0.00000626      -0.00000892      -0.00043019 </v>
   <v>       0.00001664      -0.00001646      -0.00044199 </v>
   <v>       0.00000368       0.00000986      -0.00042471 </v>
   <v>       0.00000027       0.00000103      -0.00042453 </v>
   <v>       0.00000649       0.00000233      -0.00041813 </v>
   <v>      -0.00000347       0.00000361      -0.00040967 </v>
   <v>       0.00000718       0.00000674      -0.00042514 </v>
   <v>       0.00000287       0.00000176      -0.00041512 </v>
   <v>      -0.00000378       0.00000902      -0.00041841 </v>
   <v>       0.00000642       0.00001022      -0.00042202 </v>
   <v>      -0.00000283      -0.00000315      -0.00041524 </v>
   <v>       0.00000432      -0.00000078      -0.00040888 </v>
   <v>      -0.00000829       0.00000084      -0.00040891 </v>
   <v>       0.00000486      -0.00000336      -0.00041653 </v>
   <v>      -0.00000139      -0.00000309      -0.00041886 </v>
   <v>      -0.00002747      -0.00000905      -0.00042523 </v>
   <v>       0.00000273      -0.00000605      -0.00043343 </v>
   <v>      -0.00000062      -0.00001405      -0.00040956 </v>
   <v>       0.00000330      -0.00001085      -0.00042505 </v>
   <v>       0.00001871      -0.00000796      -0.00043616 </v>
  </varray>
  <varray name="stress" >
   <v>      -0.33921680       0.01071882       0.00056794 </v>
   <v>       0.01071870      -0.33927353       0.00000733 </v>
   <v>       0.00056782       0.00000726      -0.34362044 </v>
  </varray>
  <energy>
   <i name="e_fr_energy">  -1214.42557383 </i>
   <i name="e_wo_entrp">  -1214.42557383 </i>
   <i name="e_0_energy">      0.00000000 </i>
  </energy>
  <time name="totalsc">********60021.61</time>
  <eigenvalues>
   <array>
    <dimension dim="1">band</dimension>
    <dimension dim="2">kpoint</dimension>
    <dimension dim="3">spin</dimension>
    <field>eigene</field>
    <field>occ</field>
    <set>
     <set comment="spin 1">
      <set comment="kpoint 1">
       <r>  -35.2373    1.0000 </r>
       <r>  -35.2373    1.0000 </r>
       <r>  -35.2373    1.0000 </r>
       <r>  -35.2373    1.0000 </r>
       <r>  -35.2373    1.0000 </r>
       <r>  -35.2373    1.0000 </r>
       <r>  -35.2373    1.0000 </r>
       <r>  -35.2371    1.0000 </r>
       <r>  -35.2369    1.0000 </r>
       <r>  -35.2369    1.0000 </r>
       <r>  -35.2368    1.0000 </r>
       <r>  -35.2366    1.0000 </r>
       <r>  -35.2273    1.0000 </r>
       <r>  -35.2272    1.0000 </r>
       <r>  -35.2272    1.0000 </r>
       <r>  -35.2272    1.0000 </r>
       <r>  -35.2272    1.0000 </r>
       <r>  -35.2272    1.0000 </r>
       <r>  -35.2272    1.0000 </r>
       <r>  -35.2270    1.0000 </r>
       <r>  -35.2269    1.0000 </r>
       <r>  -35.2268    1.0000 </r>
       <r>  -35.2267    1.0000 </r>
       <r>  -35.2264    1.0000 </r>
       <r>  -35.1506    1.0000 </r>
       <r>  -35.1506    1.0000 </r>
       <r>  -35.1506    1.0000 </r>
       <r>  -35.1506    1.0000 </r>
       <r>  -35.1505    1.0000 </r>
       <r>  -35.1505    1.0000 </r>
       <r>  -35.1505    1.0000 </r>
       <r>  -35.1503    1.0000 </r>
       <r>  -35.1502    1.0000 </r>
       <r>  -35.1501    1.0000 </r>
       <r>  -35.1501    1.0000 </r>
       <r>  -35.1498    1.0000 </r>
       <r>  -35.1086    1.0000 </r>
       <r>  -35.1082    1.0000 </r>
       <r>  -35.0768    1.0000 </r>
       <r>  -35.0768    1.0000 </r>
       <r>  -35.0768    1.0000 </r>
       <r>  -35.0768    1.0000 </r>
       <r>  -35.0768    1.0000 </r>
       <r>  -35.0768    1.0000 </r>
       <r>  -35.0766    1.0000 </r>
       <r>  -35.0766    1.0000 </r>
       <r>  -35.0765    1.0000 </r>
       <r>  -35.0764    1.0000 </r>
       <r>  -35.0763    1.0000 </r>
       <r>  -35.0763    1.0000 </r>
       <r>  -35.0350    1.0000 </r>
       <r>  -35.0350    1.0000 </r>
       <r>  -35.0350    1.0000 </r>
       <r>  -35.0350    1.0000 </r>
       <r>  -35.0350    1.0000 </r>
       <r>  -35.0350    1.0000 </r>
       <r>  -35.0348    1.0000 </r>
       <r>  -35.0347    1.0000 </r>
       <r>  -35.0347    1.0000 </r>
       <r>  -35.0346    1.0000 </r>
       <r>  -35.0345    1.0000 </r>
       <r>  -35.0345    1.0000 </r>
       <r>  -35.0300    1.0000 </r>
       <r>  -35.0299    1.0000 </r>
       <r>  -35.0299    1.0000 </r>
       <r>  -35.0299    1.0000 </r>
       <r>  -35.0299    1.0000 </r>
       <r>  -35.0299    1.0000 </r>
       <r>  -35.0299    1.0000 </r>
       <r>  -35.0298    1.0000 </r>
       <r>  -35.0296    1.0000 </r>
       <r>  -35.0296    1.0000 </r>
       <r>  -35.0293    1.0000 </r>
       <r>  -35.0292    1.0000 </r>
       <r>  -35.0251    1.0000 </r>
       <r>  -35.0250    1.0000 </r>
       <r>  -35.0250    1.0000 </r>
       <r>  -35.0250    1.0000 </r>
       <r>  -35.0250    1.0000 </r>
       <r>  -35.0250    1.0000 </r>
       <r>  -35.0249    1.0000 </r>
       <r>  -35.0248    1.0000 </r>
       <r>  -35.0247    1.0000 </r>
       <r>  -35.0247    1.0000 </r>
       <r>  -35.0245    1.0000 </r>
       <r>  -35.0245    1.0000 </r>
       <r>  -35.0090    1.0000 </r>
       <r>  -35.0090    1.0000 </r>
       <r>  -35.0090    1.0000 </r>
       <r>  -35.0090    1.0000 </r>
       <r>  -35.0090    1.0000 </r>
       <r>  -35.0090    1.0000 </r>
       <r>  -35.0089    1.0000 </r>
       <r>  -35.0088    1.0000 </r>
       <r>  -35.0087    1.0000 </r>
       <r>  -35.0086    1.0000 </r>
       <r>  -35.0085    1.0000 </r>
       <r>  -35.0084    1.0000 </r>
       <r>  -34.9885    1.0000 </r>
       <r>  -34.9883    1.0000 </r>
       <r>  -34.9883    1.0000 </r>
       <r>  -34.9883    1.0000 </r>
       <r>  -34.9883    1.0000 </r>
       <r>  -34.9883    1.0000 </r>
       <r>  -34.9883    1.0000 </r>
       <r>  -34.9882    1.0000 </r>
       <r>  -34.9880    1.0000 </r>
       <r>  -34.9880    1.0000 </r>
       <r>  -34.9878    1.0000 </r>
       <r>  -34.9874    1.0000 </r>
       <r>  -34.9537    1.0000 </r>
       <r>  -34.9537    1.0000 </r>
       <r>  -34.9537    1.0000 </r>
       <r>  -34.9537    1.0000 </r>
       <r>  -34.9537    1.0000 </r>
       <r>  -34.9537    1.0000 </r>
       <r>  -34.9537    1.0000 </r>
       <r>  -34.9535    1.0000 </r>
       <r>  -34.9533    1.0000 </r>
       <r>  -34.9533    1.0000 </r>
       <r>  -34.9531    1.0000 </r>
       <r>  -34.9529    1.0000 </r>
       <r>  -34.9230    1.0000 </r>
       <r>  -34.9230    1.0000 </r>
       <r>  -34.9230    1.0000 </r>
       <r>  -34.9230    1.0000 </r>
       <r>  -34.9230    1.0000 </r>
       <r>  -34.9230    1.0000 </r>
       <r>  -34.9230    1.0000 </r>
       <r>  -34.9227    1.0000 </r>
       <r>  -34.9227    1.0000 </r>
       <r>  -34.9227    1.0000 </r>
       <r>  -34.9226    1.0000 </r>
       <r>  -34.9223    1.0000 </r>
       <r>  -34.8652    1.0000 </r>
       <r>  -34.8652    1.0000 </r>
       <r>  -34.8652    1.0000 </r>
       <r>  -34.8652    1.0000 </r>
       <r>  -34.8652    1.0000 </r>
       <r>  -34.8652    1.0000 </r>
       <r>  -34.8651    1.0000 </r>
       <r>  -34.8650    1.0000 </r>
       <r>  -34.8648    1.0000 </r>
       <r>  -34.8648    1.0000 </r>
       <r>  -34.8646    1.0000 </r>
       <r>  -34.8645    1.0000 </r>
       <r>  -34.8291    1.0000 </r>
       <r>  -34.8291    1.0000 </r>
       <r>  -34.8288    1.0000 </r>
       <r>  -34.8287    1.0000 </r>
       <r>  -14.6097    1.0000 </r>
       <r>  -14.4294    1.0000 </r>
       <r>  -14.0004    1.0000 </r>
       <r>  -14.0003    1.0000 </r>
       <r>  -14.0002    1.0000 </r>
       <r>  -14.0002    1.0000 </r>
       <r>  -14.0001    1.0000 </r>
       <r>  -13.9997    1.0000 </r>
       <r>  -13.8266    1.0000 </r>
       <r>  -13.8262    1.0000 </r>
       <r>  -13.8262    1.0000 </r>
       <r>  -13.8262    1.0000 </r>
       <r>  -13.8261    1.0000 </r>
       <r>  -13.8259    1.0000 </r>
       <r>  -13.2632    1.0000 </r>
       <r>  -13.0474    1.0000 </r>
       <r>  -13.0472    1.0000 </r>
       <r>  -13.0472    1.0000 </r>
       <r>  -13.0472    1.0000 </r>
       <r>  -13.0470    1.0000 </r>
       <r>  -13.0465    1.0000 </r>
       <r>  -12.9914    1.0000 </r>
       <r>  -12.9911    1.0000 </r>
       <r>  -12.9910    1.0000 </r>
       <r>  -12.9910    1.0000 </r>
       <r>  -12.9909    1.0000 </r>
       <r>  -12.9907    1.0000 </r>
       <r>  -12.9808    1.0000 </r>
       <r>  -12.9051    1.0000 </r>
       <r>  -12.9047    1.0000 </r>
       <r>  -12.9045    1.0000 </r>
       <r>  -12.9045    1.0000 </r>
       <r>  -12.9045    1.0000 </r>
       <r>  -12.9042    1.0000 </r>
       <r>  -12.7612    1.0000 </r>
       <r>  -12.7610    1.0000 </r>
       <r>  -12.7610    1.0000 </r>
       <r>  -12.7610    1.0000 </r>
       <r>  -12.7607    1.0000 </r>
       <r>  -12.7604    1.0000 </r>
       <r>  -12.7583    1.0000 </r>
       <r>  -12.7581    1.0000 </r>
       <r>  -12.7581    1.0000 </r>
       <r>  -12.7580    1.0000 </r>
       <r>  -12.7579    1.0000 </r>
       <r>  -12.7575    1.0000 </r>
       <r>  -12.6428    1.0000 </r>
       <r>  -12.6424    1.0000 </r>
       <r>  -12.6422    1.0000 </r>
       <r>  -12.6422    1.0000 </r>
       <r>  -12.6422    1.0000 </r>
       <r>  -12.6420    1.0000 </r>
       <r>  -12.5606    1.0000 </r>
       <r>  -12.5599    1.0000 </r>
       <r>  -12.5598    1.0000 </r>
       <r>  -12.5597    1.0000 </r>
       <r>  -12.5597    1.0000 </r>
       <r>  -12.5594    1.0000 </r>
       <r>  -12.4493    1.0000 </r>
       <r>  -12.4484    1.0000 </r>
       <r>  -12.4482    1.0000 </r>
       <r>  -12.4482    1.0000 </r>
       <r>  -12.4482    1.0000 </r>
       <r>  -12.4480    1.0000 </r>
       <r>  -12.4166    1.0000 </r>
       <r>  -12.4162    1.0000 </r>
       <r>  -12.4162    1.0000 </r>
       <r>  -12.4162    1.0000 </r>
       <r>  -12.4160    1.0000 </r>
       <r>  -12.4154    1.0000 </r>
       <r>  -12.3492    1.0000 </r>
       <r>  -12.3487    1.0000 </r>
       <r>  -12.3487    1.0000 </r>
       <r>  -12.3487    1.0000 </r>
       <r>  -12.3486    1.0000 </r>
       <r>  -12.3478    1.0000 </r>
       <r>  -12.2929    1.0000 </r>
       <r>  -12.2929    1.0000 </r>
       <r>  -12.2929    1.0000 </r>
       <r>  -12.2928    1.0000 </r>
       <r>  -12.2922    1.0000 </r>
       <r>  -12.2916    1.0000 </r>
       <r>  -12.2278    1.0000 </r>
       <r>  -12.2274    1.0000 </r>
       <r>  -12.2272    1.0000 </r>
       <r>  -12.2271    1.0000 </r>
       <r>  -12.2271    1.0000 </r>
       <r>  -12.2271    1.0000 </r>
       <r>  -12.2038    1.0000 </r>
       <r>  -12.2026    1.0000 </r>
       <r>  -12.2024    1.0000 </r>
       <r>  -12.2023    1.0000 </r>
       <r>  -12.2023    1.0000 </r>
       <r>  -12.2022    1.0000 </r>
       <r>  -12.1777    1.0000 </r>
       <r>  -12.1774    1.0000 </r>
       <r>  -12.1774    1.0000 </r>
       <r>  -12.1774    1.0000 </r>
       <r>  -12.1773    1.0000 </r>
       <r>  -12.1761    1.0000 </r>
       <r>   -6.4329    1.0000 </r>
       <r>   -6.1418    1.0000 </r>
       <r>   -6.1417    1.0000 </r>
       <r>   -6.1416    1.0000 </r>
       <r>   -6.1416    1.0000 </r>
       <r>   -6.1415    1.0000 </r>
       <r>   -6.1413    1.0000 </r>
       <r>   -5.9356    1.0000 </r>
       <r>   -5.9353    1.0000 </r>
       <r>   -5.9353    1.0000 </r>
       <r>   -5.9352    1.0000 </r>
       <r>   -5.9352    1.0000 </r>
       <r>   -5.9350    1.0000 </r>
       <r>   -5.8603    1.0000 </r>
       <r>   -5.8601    1.0000 </r>
       <r>   -5.8600    1.0000 </r>
       <r>   -5.8600    1.0000 </r>
       <r>   -5.8599    1.0000 </r>
       <r>   -5.8591    1.0000 </r>
       <r>   -5.8115    1.0000 </r>
       <r>   -5.8115    1.0000 </r>
       <r>   -5.8114    1.0000 </r>
       <r>   -5.8114    1.0000 </r>
       <r>   -5.8110    1.0000 </r>
       <r>   -5.8107    1.0000 </r>
       <r>   -5.8105    1.0000 </r>
       <r>   -5.6764    1.0000 </r>
       <r>   -5.6756    1.0000 </r>
       <r>   -5.6753    1.0000 </r>
       <r>   -5.6753    1.0000 </r>
       <r>   -5.6752    1.0000 </r>
       <r>   -5.6752    1.0000 </r>
       <r>   -5.6566    1.0000 </r>
       <r>   -5.6560    1.0000 </r>
       <r>   -5.6555    1.0000 </r>
       <r>   -5.6555    1.0000 </r>
       <r>   -5.6554    1.0000 </r>
       <r>   -5.6554    1.0000 </r>
       <r>   -5.6531    1.0000 </r>
       <r>   -5.6530    1.0000 </r>
       <r>   -5.6530    1.0000 </r>
       <r>   -5.6529    1.0000 </r>
       <r>   -5.6527    1.0000 </r>
       <r>   -5.6523    1.0000 </r>
       <r>   -5.6221    1.0000 </r>
       <r>   -5.6221    1.0000 </r>
       <r>   -5.6221    1.0000 </r>
       <r>   -5.6220    1.0000 </r>
       <r>   -5.6215    1.0000 </r>
       <r>   -5.6212    1.0000 </r>
       <r>   -5.4067    1.0000 </r>
       <r>   -5.4064    1.0000 </r>
       <r>   -5.4063    1.0000 </r>
       <r>   -5.4062    1.0000 </r>
       <r>   -5.4061    1.0000 </r>
       <r>   -5.4059    1.0000 </r>
       <r>   -5.2877    1.0000 </r>
       <r>   -5.2869    1.0000 </r>
       <r>   -5.2868    1.0000 </r>
       <r>   -5.2868    1.0000 </r>
       <r>   -5.2867    1.0000 </r>
       <r>   -5.2864    1.0000 </r>
       <r>   -5.1822    1.0000 </r>
       <r>   -5.1819    1.0000 </r>
       <r>   -5.1817    1.0000 </r>
       <r>   -5.1816    1.0000 </r>
       <r>   -5.1815    1.0000 </r>
       <r>   -5.1814    1.0000 </r>
       <r>   -4.9668    1.0000 </r>
       <r>   -4.9667    1.0000 </r>
       <r>   -4.9666    1.0000 </r>
       <r>   -4.9664    1.0000 </r>
       <r>   -4.9663    1.0000 </r>
       <r>   -4.9660    1.0000 </r>
       <r>   -4.6890    1.0000 </r>
       <r>   -4.6888    1.0000 </r>
       <r>   -4.6882    1.0000 </r>
       <r>   -4.6882    1.0000 </r>
       <r>   -4.6879    1.0000 </r>
       <r>   -4.6877    1.0000 </r>
       <r>   -4.5929    1.0000 </r>
       <r>   -4.5928    1.0000 </r>
       <r>   -4.5924    1.0000 </r>
       <r>   -4.5923    1.0000 </r>
       <r>   -4.5918    1.0000 </r>
       <r>   -4.5917    1.0000 </r>
       <r>   -4.4856    1.0000 </r>
       <r>   -4.4855    1.0000 </r>
       <r>   -4.4854    1.0000 </r>
       <r>   -4.4854    1.0000 </r>
       <r>   -4.4852    1.0000 </r>
       <r>   -4.4851    1.0000 </r>
       <r>   -4.4830    1.0000 </r>
       <r>   -4.4828    1.0000 </r>
       <r>   -4.4828    1.0000 </r>
       <r>   -4.4828    1.0000 </r>
       <r>   -4.4824    1.0000 </r>
       <r>   -4.4820    1.0000 </r>
       <r>   -4.2160    1.0000 </r>
       <r>   -4.2159    1.0000 </r>
       <r>   -4.2156    1.0000 </r>
       <r>   -4.2154    1.0000 </r>
       <r>   -4.2152    1.0000 </r>
       <r>   -4.2151    1.0000 </r>
       <r>   -4.1702    1.0000 </r>
       <r>   -4.1700    1.0000 </r>
       <r>   -4.1698    1.0000 </r>
       <r>   -4.1698    1.0000 </r>
       <r>   -4.1697    1.0000 </r>
       <r>   -4.1696    1.0000 </r>
       <r>   -4.1148    1.0000 </r>
       <r>   -4.1145    1.0000 </r>
       <r>   -4.1143    1.0000 </r>
       <r>   -4.1142    1.0000 </r>
       <r>   -4.1142    1.0000 </r>
       <r>   -4.1140    1.0000 </r>
       <r>   -3.9837    1.0000 </r>
       <r>   -3.9834    1.0000 </r>
       <r>   -3.9832    1.0000 </r>
       <r>   -3.9831    1.0000 </r>
       <r>   -3.9828    1.0000 </r>
       <r>   -3.9826    1.0000 </r>
       <r>   -3.9761    1.0000 </r>
       <r>   -3.9759    1.0000 </r>
       <r>   -3.9751    1.0000 </r>
       <r>   -3.9750    1.0000 </r>
       <r>   -3.9750    1.0000 </r>
       <r>   -3.9748    1.0000 </r>
       <r>   -3.8784    1.0000 </r>
       <r>   -3.8781    1.0000 </r>
       <r>   -3.8780    1.0000 </r>
       <r>   -3.8778    1.0000 </r>
       <r>   -3.8775    1.0000 </r>
       <r>   -3.8774    1.0000 </r>
       <r>   -3.8002    1.0000 </r>
       <r>   -3.7997    1.0000 </r>
       <r>   -3.7996    1.0000 </r>
       <r>   -3.7995    1.0000 </r>
       <r>   -3.7992    1.0000 </r>
       <r>   -3.7985    1.0000 </r>
       <r>   -3.7565    1.0000 </r>
       <r>   -3.7557    1.0000 </r>
       <r>   -3.7556    1.0000 </r>
       <r>   -3.7555    1.0000 </r>
       <r>   -3.7550    1.0000 </r>
       <r>   -3.7538    1.0000 </r>
       <r>   -3.5941    1.0000 </r>
       <r>   -3.5938    1.0000 </r>
       <r>   -3.5938    1.0000 </r>
       <r>   -3.5937    1.0000 </r>
       <r>   -3.5937    1.0000 </r>
       <r>   -3.5933    1.0000 </r>
       <r>   -3.4222    1.0000 </r>
       <r>   -3.4213    1.0000 </r>
       <r>   -3.4212    1.0000 </r>
       <r>   -3.4210    1.0000 </r>
       <r>   -3.4209    1.0000 </r>
       <r>   -3.4205    1.0000 </r>
       <r>   -3.3928    1.0000 </r>
       <r>   -3.3923    1.0000 </r>
       <r>   -3.3922    1.0000 </r>
       <r>   -3.3922    1.0000 </r>
       <r>   -3.3921    1.0000 </r>
       <r>   -3.3916    1.0000 </r>
       <r>   -3.3890    1.0000 </r>
       <r>   -3.3890    1.0000 </r>
       <r>   -3.3888    1.0000 </r>
       <r>   -3.3887    1.0000 </r>
       <r>   -3.3886    1.0000 </r>
       <r>   -3.3883    1.0000 </r>
       <r>   -3.3438    1.0000 </r>
       <r>   -3.3430    1.0000 </r>
       <r>   -3.3429    1.0000 </r>
       <r>   -3.3429    1.0000 </r>
       <r>   -3.3428    1.0000 </r>
       <r>   -3.3423    1.0000 </r>
       <r>   -3.3349    1.0000 </r>
       <r>   -3.3339    1.0000 </r>
       <r>   -3.3337    1.0000 </r>
       <r>   -3.3335    1.0000 </r>
       <r>   -3.3333    1.0000 </r>
       <r>   -3.3328    1.0000 </r>
       <r>   -3.0594    1.0000 </r>
       <r>   -3.0591    1.0000 </r>
       <r>   -3.0589    1.0000 </r>
       <r>   -3.0588    1.0000 </r>
       <r>   -3.0587    1.0000 </r>
       <r>   -3.0587    1.0000 </r>
       <r>   -2.9198    1.0000 </r>
       <r>   -2.9198    1.0000 </r>
       <r>   -2.9197    1.0000 </r>
       <r>   -2.9197    1.0000 </r>
       <r>   -2.9195    1.0000 </r>
       <r>   -2.9193    1.0000 </r>
       <r>   -2.9062    1.0000 </r>
       <r>   -2.9060    1.0000 </r>
       <r>   -2.8986    1.0000 </r>
       <r>   -2.8983    1.0000 </r>
       <r>   -2.7574    1.0000 </r>
       <r>   -2.5637    1.0000 </r>
       <r>   -2.5636    1.0000 </r>
       <r>   -2.5634    1.0000 </r>
       <r>   -2.5633    1.0000 </r>
       <r>   -2.5631    1.0000 </r>
       <r>   -2.5630    1.0000 </r>
       <r>   -2.5616    1.0000 </r>
       <r>   -2.5615    1.0000 </r>
       <r>   -2.5613    1.0000 </r>
       <r>   -2.5611    1.0000 </r>
       <r>   -2.5609    1.0000 </r>
       <r>   -2.5607    1.0000 </r>
       <r>   -2.5196    1.0000 </r>
       <r>   -2.5188    1.0000 </r>
       <r>   -2.5187    1.0000 </r>
       <r>   -2.5187    1.0000 </r>
       <r>   -2.5185    1.0000 </r>
       <r>   -2.5174    1.0000 </r>
       <r>   -2.4793    1.0000 </r>
       <r>   -2.4782    1.0000 </r>
       <r>   -2.4780    1.0000 </r>
       <r>   -2.4779    1.0000 </r>
       <r>   -2.4778    1.0000 </r>
       <r>   -2.4771    1.0000 </r>
       <r>   -2.3812    1.0000 </r>
       <r>   -2.3805    1.0000 </r>
       <r>   -2.3805    1.0000 </r>
       <r>   -2.3804    1.0000 </r>
       <r>   -2.3803    1.0000 </r>
       <r>   -2.3796    1.0000 </r>
       <r>   -2.2944    1.0000 </r>
[...]
       <r>   -23.0191     0.0000   300.0000 </r>
       <r>   -22.8787     0.0000   300.0000 </r>
       <r>   -22.7384     0.0000   300.0000 </r>
       <r>   -22.5981     0.0000   300.0000 </r>
       <r>   -22.4577     0.0000   300.0000 </r>
       <r>   -22.3174     0.0000   300.0000 </r>
       <r>   -22.1771     0.0000   300.0000 </r>
       <r>   -22.0367     0.0000   300.0000 </r>
       <r>   -21.8964     0.0000   300.0000 </r>
       <r>   -21.7561     0.0000   300.0000 </r>
       <r>   -21.6158     0.0000   300.0000 </r>
       <r>   -21.4754     0.0000   300.0000 </r>
       <r>   -21.3351     0.0000   300.0000 </r>
       <r>   -21.1948     0.0000   300.0000 </r>
       <r>   -21.0544     0.0000   300.0000 </r>
       <r>   -20.9141     0.0000   300.0000 </r>
       <r>   -20.7738     0.0000   300.0000 </r>
       <r>   -20.6334     0.0000   300.0000 </r>
       <r>   -20.4931     0.0000   300.0000 </r>
       <r>   -20.3528     0.0000   300.0000 </r>
       <r>   -20.2124     0.0000   300.0000 </r>
       <r>   -20.0721     0.0000   300.0000 </r>
       <r>   -19.9318     0.0000   300.0000 </r>
       <r>   -19.7915     0.0000   300.0000 </r>
       <r>   -19.6511     0.0000   300.0000 </r>
       <r>   -19.5108     0.0000   300.0000 </r>
       <r>   -19.3705     0.0000   300.0000 </r>
       <r>   -19.2301     0.0000   300.0000 </r>
       <r>   -19.0898     0.0000   300.0000 </r>
       <r>   -18.9495     0.0000   300.0000 </r>
       <r>   -18.8091     0.0000   300.0000 </r>
       <r>   -18.6688     0.0000   300.0000 </r>
       <r>   -18.5285     0.0000   300.0000 </r>
       <r>   -18.3882     0.0000   300.0000 </r>
       <r>   -18.2478     0.0000   300.0000 </r>
       <r>   -18.1075     0.0000   300.0000 </r>
       <r>   -17.9672     0.0000   300.0000 </r>
       <r>   -17.8268     0.0000   300.0000 </r>
       <r>   -17.6865     0.0000   300.0000 </r>
       <r>   -17.5462     0.0000   300.0000 </r>
       <r>   -17.4058     0.0000   300.0000 </r>
       <r>   -17.2655     0.0000   300.0000 </r>
       <r>   -17.1252     0.0000   300.0000 </r>
       <r>   -16.9849     0.0000   300.0000 </r>
       <r>   -16.8445     0.0000   300.0000 </r>
       <r>   -16.7042     0.0000   300.0000 </r>
       <r>   -16.5639     0.0000   300.0000 </r>
       <r>   -16.4235     0.0000   300.0000 </r>
       <r>   -16.2832     0.0000   300.0000 </r>
       <r>   -16.1429     0.0000   300.0000 </r>
       <r>   -16.0025     0.0000   300.0000 </r>
       <r>   -15.8622     0.0000   300.0000 </r>
       <r>   -15.7219     0.0000   300.0000 </r>
       <r>   -15.5815     0.0000   300.0000 </r>
       <r>   -15.4412     0.0000   300.0000 </r>
       <r>   -15.3009     0.0000   300.0000 </r>
       <r>   -15.1606     0.0000   300.0000 </r>
       <r>   -15.0202     0.0000   300.0000 </r>
       <r>   -14.8799     0.0000   300.0000 </r>
       <r>   -14.7396     0.0000   300.0000 </r>
       <r>   -14.5992     3.3156   300.4653 </r>
       <r>   -14.4589     1.6047   300.7252 </r>
       <r>   -14.3186     0.0000   304.0000 </r>
       <r>   -14.1782     0.0000   307.0000 </r>
       <r>   -14.0379     0.0000   310.0000 </r>
       <r>   -13.8976    21.3781   316.0000 </r>
       <r>   -13.7573    21.3781   319.0000 </r>
       <r>   -13.6169     0.5654   319.0793 </r>
       <r>   -13.4766     0.0000   325.0000 </r>
       <r>   -13.3363    21.3781   334.0000 </r>
       <r>   -13.1959    30.3175   338.2545 </r>
       <r>   -13.0556    12.1500   342.2050 </r>
       <r>   -12.9153    86.3744   358.6210 </r>
       <r>   -12.7749   107.5683   377.0951 </r>
       <r>   -12.6346    39.8934   388.5983 </r>
       <r>   -12.4943   163.5391   417.9495 </r>
       <r>   -12.3539   165.1721   446.6787 </r>
       <r>   -12.2136   152.8948   483.9558 </r>
       <r>   -12.0733    42.7562   500.0000 </r>
       <r>   -11.9330     0.0000   500.0000 </r>
       <r>   -11.7926     0.0000   500.0000 </r>
       <r>   -11.6523     0.0000   500.0000 </r>
       <r>   -11.5120     0.0000   500.0000 </r>
       <r>   -11.3716     0.0000   500.0000 </r>
       <r>   -11.2313     0.0000   500.0000 </r>
       <r>   -11.0910     0.0000   500.0000 </r>
       <r>   -10.9506     0.0000   500.0000 </r>
       <r>   -10.8103     0.0000   500.0000 </r>
       <r>   -10.6700     0.0000   500.0000 </r>
       <r>   -10.5297     0.0000   500.0000 </r>
       <r>   -10.3893     0.0000   500.0000 </r>
       <r>   -10.2490     0.0000   500.0000 </r>
       <r>   -10.1087     0.0000   500.0000 </r>
       <r>    -9.9683     0.0000   500.0000 </r>
       <r>    -9.8280     0.0000   500.0000 </r>
       <r>    -9.6877     0.0000   500.0000 </r>
       <r>    -9.5473     0.0000   500.0000 </r>
       <r>    -9.4070     0.0000   500.0000 </r>
       <r>    -9.2667     0.0000   500.0000 </r>
       <r>    -9.1263     0.0000   500.0000 </r>
       <r>    -8.9860     0.0000   500.0000 </r>
       <r>    -8.8457     0.0000   500.0000 </r>
       <r>    -8.7054     0.0000   500.0000 </r>
       <r>    -8.5650     0.0000   500.0000 </r>
       <r>    -8.4247     0.0000   500.0000 </r>
       <r>    -8.2844     0.0000   500.0000 </r>
       <r>    -8.1440     0.0000   500.0000 </r>
       <r>    -8.0037     0.0000   500.0000 </r>
       <r>    -7.8634     0.0000   500.0000 </r>
       <r>    -7.7230     0.0000   500.0000 </r>
       <r>    -7.5827     0.0000   500.0000 </r>
       <r>    -7.4424     0.0000   500.0000 </r>
       <r>    -7.3021     0.0000   500.0000 </r>
       <r>    -7.1617     0.0000   500.0000 </r>
       <r>    -7.0214     0.0000   500.0000 </r>
       <r>    -6.8811     0.0000   500.0000 </r>
       <r>    -6.7407     0.0000   500.0000 </r>
       <r>    -6.6004     0.0000   500.0000 </r>
       <r>    -6.4601     0.0002   500.0000 </r>
       <r>    -6.3197    10.6891   502.0000 </r>
       <r>    -6.1794    26.2277   505.6805 </r>
       <r>    -6.0391     0.0000   515.5000 </r>
       <r>    -5.8988    86.8779   527.6916 </r>
       <r>    -5.7584    88.5207   551.9221 </r>
       <r>    -5.6181   163.4109   577.9315 </r>
       <r>    -5.4778     0.0000   588.0000 </r>
       <r>    -5.3374   202.0033   619.3472 </r>
       <r>    -5.1971    74.8732   639.0070 </r>
       <r>    -5.0568     0.0000   642.0000 </r>
       <r>    -4.9164    33.0001   646.6309 </r>
       <r>    -4.7761     0.2060   651.0289 </r>
       <r>    -4.6358    39.9597   662.6076 </r>
       <r>    -4.4954    45.1562   673.8368 </r>
       <r>    -4.3551     3.9119   680.0490 </r>
       <r>    -4.2148   124.1618   711.9237 </r>
       <r>    -4.0745    64.1344   732.0000 </r>
       <r>    -3.9341   186.8854   761.7257 </r>
       <r>    -3.7938    16.8558   767.3654 </r>
       <r>    -3.6535    21.3781   792.0000 </r>
       <r>    -3.5131   113.9159   810.9859 </r>
       <r>    -3.3728   135.0617   837.9533 </r>
       <r>    -3.2325    72.8838   859.2278 </r>
       <r>    -3.0921    64.4080   873.0384 </r>
       <r>    -2.9518    42.7563   891.0000 </r>
       <r>    -2.8115    42.7562   902.0000 </r>
       <r>    -2.6712    42.7562   908.5000 </r>
       <r>    -2.5308    72.5448   918.6802 </r>
       <r>    -2.3905    87.1734   938.7331 </r>
       <r>    -2.2502   113.8032   957.4700 </r>
       <r>    -2.1098    94.8588   974.3116 </r>
       <r>    -1.9695   152.5052  1010.9011 </r>
       <r>    -1.8292    95.0833  1032.8431 </r>
       <r>    -1.6888    77.3665  1048.3569 </r>
       <r>    -1.5485    37.6762  1059.7871 </r>
       <r>    -1.4082    64.1343  1073.0000 </r>
       <r>    -1.2678    43.5625  1082.1131 </r>
       <r>    -1.1275    57.7890  1102.1096 </r>
       <r>    -0.9872   191.6808  1140.3986 </r>
       <r>    -0.8469    13.1712  1145.3483 </r>
       <r>    -0.7065    79.4272  1171.1460 </r>
       <r>    -0.5662    46.1959  1184.4827 </r>
       <r>    -0.4259    63.0350  1193.3457 </r>
       <r>    -0.2855    21.3781  1196.5000 </r>
       <r>    -0.1452     0.0000  1196.5000 </r>
       <r>    -0.0049     0.0008  1196.5001 </r>
       <r>     0.1355     0.0000  1199.5000 </r>
       <r>     0.2758     3.5630  1200.0000 </r>
       <r>     0.4161     0.0000  1200.0000 </r>
       <r>     0.5564     0.0000  1200.0000 </r>
       <r>     0.6968     0.0000  1200.0000 </r>
       <r>     0.8371     0.0000  1200.0000 </r>
       <r>     0.9774     0.0000  1200.0000 </r>
       <r>     1.1178     0.0000  1200.0000 </r>
       <r>     1.2581     0.0000  1200.0000 </r>
       <r>     1.3984     0.0000  1200.0000 </r>
       <r>     1.5388    32.3150  1204.5348 </r>
       <r>     1.6791    19.7319  1211.7690 </r>
       <r>     1.8194     3.0455  1221.4274 </r>
       <r>     1.9598    65.5392  1242.1971 </r>
       <r>     2.1001   128.9433  1269.0947 </r>
       <r>     2.2404   195.2068  1302.3935 </r>
       <r>     2.3807    81.6033  1325.4514 </r>
       <r>     2.5211   215.6186  1368.2578 </r>
       <r>     2.6614    70.4466  1397.8858 </r>
       <r>     2.8017   173.1186  1422.7938 </r>
       <r>     2.9421    32.0645  1436.9996 </r>
       <r>     3.0824     0.0000  1440.0000 </r>
       <r>     3.2227     0.0000  1440.0000 </r>
       <r>     3.3631     0.0000  1440.0000 </r>
       <r>     3.5034     0.0000  1440.0000 </r>
       <r>     3.6437     0.0000  1440.0000 </r>
       <r>     3.7840     0.0000  1440.0000 </r>
       <r>     3.9244     0.0000  1440.0000 </r>
       <r>     4.0647     0.0000  1440.0000 </r>
       <r>     4.2050     0.0000  1440.0000 </r>
       <r>     4.3454     0.0000  1440.0000 </r>
       <r>     4.4857     0.0000  1440.0000 </r>
       <r>     4.6260     0.0000  1440.0000 </r>
       <r>     4.7664     0.0000  1440.0000 </r>
       <r>     4.9067     0.0000  1440.0000 </r>
      </set>
     </set>
    </array>
   </total>
  </dos>
 </calculation>
 <structure name="finalpos" >
  <crystal>
   <varray name="basis" >
    <v>      15.65451448      -0.00000001       0.00000000 </v>
    <v>      -7.82725475      13.55720592       0.00000000 </v>
    <v>       0.00000000       0.00000000      26.00697779 </v>
   </varray>
   <i name="volume">   5519.49928921 </i>
   <varray name="rec_basis" >
    <v>       0.06387934       0.03688074       0.00000000 </v>
    <v>       0.00000000       0.07376151       0.00000000 </v>
    <v>       0.00000000       0.00000000       0.03845122 </v>
   </varray>
  </crystal>
  <varray name="positions" >
   <v>       0.06633723       0.13333333       0.17271165 </v>
   <v>       0.26666667       0.13333333       0.17304109 </v>
   <v>       0.46666667       0.13333333       0.17304109 </v>
   <v>       0.66666667       0.13333333       0.17304109 </v>
   <v>       0.86666667       0.13333333       0.17304109 </v>
   <v>       0.06666667       0.33333333       0.17304109 </v>
   <v>       0.26666667       0.33333333       0.17304109 </v>
   <v>       0.46666667       0.33333333       0.17304109 </v>
   <v>       0.66666667       0.33333333       0.17304109 </v>
   <v>       0.86666667       0.33333333       0.17304109 </v>
   <v>       0.06666667       0.53333333       0.17304109 </v>
   <v>       0.26666667       0.53333333       0.17304109 </v>
   <v>       0.46666667       0.53333333       0.17304109 </v>
   <v>       0.66666667       0.53333333       0.17304109 </v>
   <v>       0.86666667       0.53333333       0.17304109 </v>
   <v>       0.06666667       0.73333333       0.17304109 </v>
   <v>       0.26666667       0.73333333       0.17304109 </v>
   <v>       0.46666667       0.73333333       0.17304109 </v>
   <v>       0.66666667       0.73333333       0.17304109 </v>
   <v>       0.86666667       0.73333333       0.17304109 </v>
   <v>       0.06666667       0.93333333       0.17304109 </v>
   <v>       0.26666667       0.93333333       0.17304109 </v>
   <v>       0.46666667       0.93333333       0.17304109 </v>
   <v>       0.66666667       0.93333333       0.17304109 </v>
   <v>       0.86666667       0.93333333       0.17304109 </v>
   <v>       0.13333333       0.06666667       0.40532935 </v>
   <v>       0.33333333       0.06666667       0.40532935 </v>
   <v>       0.53333333       0.06666667       0.40532935 </v>
   <v>       0.73333333       0.06666667       0.40532935 </v>
   <v>       0.93333333       0.06666667       0.40532935 </v>
   <v>       0.13333333       0.26666667       0.40532935 </v>
   <v>       0.33333333       0.26666667       0.40532935 </v>
   <v>       0.53333333       0.26666667       0.40532935 </v>
   <v>       0.73333333       0.26666667       0.40532935 </v>
   <v>       0.93333333       0.26666667       0.40532935 </v>
   <v>       0.13333333       0.46666667       0.40532935 </v>
   <v>       0.33333333       0.46666667       0.40532935 </v>
   <v>       0.53333333       0.46666667       0.40532935 </v>
   <v>       0.73333333       0.46666667       0.40532935 </v>
   <v>       0.93333333       0.46666667       0.40532935 </v>
   <v>       0.13333333       0.66666667       0.40532935 </v>
   <v>       0.33333333       0.66666667       0.40532935 </v>
   <v>       0.53333333       0.66666667       0.40532935 </v>
   <v>       0.73333333       0.66666667       0.40532935 </v>
   <v>       0.93333333       0.66666667       0.40532935 </v>
   <v>       0.13333333       0.86666667       0.40532935 </v>
   <v>       0.33333333       0.86666667       0.40532935 </v>
   <v>       0.53333333       0.86666667       0.40532935 </v>
   <v>       0.73333333       0.86666667       0.40532935 </v>
   <v>       0.93333333       0.86666667       0.40532935 </v>
   <v>       0.13333333       0.06666667       0.11318662 </v>
   <v>       0.33333333       0.06666667       0.11318662 </v>
   <v>       0.53333333       0.06666667       0.11318662 </v>
   <v>       0.73333333       0.06666667       0.11318662 </v>
   <v>       0.93333333       0.06666667       0.11318662 </v>
   <v>       0.13333333       0.26666667       0.11318662 </v>
   <v>       0.33333333       0.26666667       0.11318662 </v>
   <v>       0.53333333       0.26666667       0.11318662 </v>
   <v>       0.73333333       0.26666667       0.11318662 </v>
   <v>       0.93333333       0.26666667       0.11318662 </v>
   <v>       0.13333333       0.46666667       0.11318662 </v>
   <v>       0.33333333       0.46666667       0.11318662 </v>
   <v>       0.53333333       0.46666667       0.11318662 </v>
   <v>       0.73333333       0.46666667       0.11318662 </v>
   <v>       0.93333333       0.46666667       0.11318662 </v>
   <v>       0.13333333       0.66666667       0.11318662 </v>
   <v>       0.33333333       0.66666667       0.11318662 </v>
   <v>       0.53333333       0.66666667       0.11318662 </v>
   <v>       0.73333333       0.66666667       0.11318662 </v>
   <v>       0.93333333       0.66666667       0.11318662 </v>
   <v>       0.13333333       0.86666667       0.11318662 </v>
   <v>       0.33333333       0.86666667       0.11318662 </v>
   <v>       0.53333333       0.86666667       0.11318662 </v>
   <v>       0.73333333       0.86666667       0.11318662 </v>
   <v>       0.93333333       0.86666667       0.11318662 </v>
   <v>       0.13333333       0.06666667       0.23301500 </v>
   <v>       0.33333333       0.06666667       0.23301500 </v>
   <v>       0.53333333       0.06666667       0.23301500 </v>
   <v>       0.73333333       0.06666667       0.23301500 </v>
   <v>       0.93333333       0.06666667       0.23301500 </v>
   <v>       0.13333333       0.26666667       0.23301500 </v>
   <v>       0.33333333       0.26666667       0.23301500 </v>
   <v>       0.53333333       0.26666667       0.23301500 </v>
   <v>       0.73333333       0.26666667       0.23301500 </v>
   <v>       0.93333333       0.26666667       0.23301500 </v>
   <v>       0.13333333       0.46666667       0.23301500 </v>
   <v>       0.33333333       0.46666667       0.23301500 </v>
   <v>       0.53333333       0.46666667       0.23301500 </v>
   <v>       0.73333333       0.46666667       0.23301500 </v>
   <v>       0.93333333       0.46666667       0.23301500 </v>
   <v>       0.13333333       0.66666667       0.23301500 </v>
   <v>       0.33333333       0.66666667       0.23301500 </v>
   <v>       0.53333333       0.66666667       0.23301500 </v>
   <v>       0.73333333       0.66666667       0.23301500 </v>
   <v>       0.93333333       0.66666667       0.23301500 </v>
   <v>       0.13333333       0.86666667       0.23301500 </v>
   <v>       0.33333333       0.86666667       0.23301500 </v>
   <v>       0.53333333       0.86666667       0.23301500 </v>
   <v>       0.73333333       0.86666667       0.23301500 </v>
   <v>       0.93333333       0.86666667       0.23301500 </v>
   <v>       0.06666667       0.13333333       0.34535543 </v>
   <v>       0.26666667       0.13333333       0.34535543 </v>
   <v>       0.46666667       0.13333333       0.34535543 </v>
   <v>       0.66666667       0.13333333       0.34535543 </v>
   <v>       0.86666667       0.13333333       0.34535543 </v>
   <v>       0.06666667       0.33333333       0.34535543 </v>
   <v>       0.26666667       0.33333333       0.34535543 </v>
   <v>       0.46666667       0.33333333       0.34535543 </v>
   <v>       0.66666667       0.33333333       0.34535543 </v>
   <v>       0.86666667       0.33333333       0.34535543 </v>
   <v>       0.06666667       0.53333333       0.34535543 </v>
   <v>       0.26666667       0.53333333       0.34535543 </v>
   <v>       0.46666667       0.53333333       0.34535543 </v>
   <v>       0.66666667       0.53333333       0.34535543 </v>
   <v>       0.86666667       0.53333333       0.34535543 </v>
   <v>       0.06666667       0.73333333       0.34535543 </v>
   <v>       0.26666667       0.73333333       0.34535543 </v>
   <v>       0.46666667       0.73333333       0.34535543 </v>
   <v>       0.66666667       0.73333333       0.34535543 </v>
   <v>       0.86666667       0.73333333       0.34535543 </v>
   <v>       0.06666667       0.93333333       0.34535543 </v>
   <v>       0.26666667       0.93333333       0.34535543 </v>
   <v>       0.46666667       0.93333333       0.34535543 </v>
   <v>       0.66666667       0.93333333       0.34535543 </v>
   <v>       0.86666667       0.93333333       0.34535543 </v>
   <v>       0.06666667       0.13333333       0.46518382 </v>
   <v>       0.26666667       0.13333333       0.46518382 </v>
   <v>       0.46666667       0.13333333       0.46518382 </v>
   <v>       0.66666667       0.13333333       0.46518382 </v>
   <v>       0.86666667       0.13333333       0.46518382 </v>
   <v>       0.06666667       0.33333333       0.46518382 </v>
   <v>       0.26666667       0.33333333       0.46518382 </v>
   <v>       0.46666667       0.33333333       0.46518382 </v>
   <v>       0.66666667       0.33333333       0.46518382 </v>
   <v>       0.86666667       0.33333333       0.46518382 </v>
   <v>       0.06666667       0.53333333       0.46518382 </v>
   <v>       0.26666667       0.53333333       0.46518382 </v>
   <v>       0.46666667       0.53333333       0.46518382 </v>
   <v>       0.66666667       0.53333333       0.46518382 </v>
   <v>       0.86666667       0.53333333       0.46518382 </v>
   <v>       0.06666667       0.73333333       0.46518382 </v>
   <v>       0.26666667       0.73333333       0.46518382 </v>
   <v>       0.46666667       0.73333333       0.46518382 </v>
   <v>       0.66666667       0.73333333       0.46518382 </v>
   <v>       0.86666667       0.73333333       0.46518382 </v>
   <v>       0.06666667       0.93333333       0.46518382 </v>
   <v>       0.26666667       0.93333333       0.46518382 </v>
   <v>       0.46666667       0.93333333       0.46518382 </v>
   <v>       0.66666667       0.93333333       0.46518382 </v>
   <v>       0.86666667       0.93333333       0.46518382 </v>
  </varray>
 </structure>
</modeling>
