<?xml version="1.0" encoding="ISO-8859-1"?>
<modeling>
 <generator>
  <i name="program" type="string">vasp </i>
  <i name="version" type="string">5.3.3  </i>
  <i name="subversion" type="string">18Dez12 (build Oct  3 2015 22:05:41) complex                          parallel </i>
  <i name="platform" type="string">BGQ </i>
  <i name="date" type="string">2018 02 12 </i>
  <i name="time" type="string">10:22:58 </i>
 </generator>
 <incar>
  <i type="string" name="SYSTEM"> ZrSiO4_U</i>
  <i type="int" name="ISTART">     1</i>
  <i type="string" name="PREC">accurate</i>
  <i type="string" name="ALGO"> Normal</i>
  <i type="int" name="NSIM">     1</i>
  <i type="logical" name="ADDGRID"> T  </i>
  <i type="int" name="ICHARG">     1</i>
  <i type="int" name="IBRION">    -1</i>
  <i name="EDIFF">      0.00000001</i>
  <i type="int" name="NSW">     0</i>
  <i type="int" name="ISIF">     2</i>
  <i name="ENCUT">    600.00000000</i>
  <i type="logical" name="LREAL"> F  </i>
  <i type="logical" name="LPLANE"> F  </i>
  <i type="int" name="ISMEAR">     0</i>
  <i name="SIGMA">      0.01000000</i>
  <i type="logical" name="LWAVE"> F  </i>
  <i type="logical" name="LCHARG"> F  </i>
 </incar>
 <kpoints>
  <generation param="Gamma">
   <v type="int" name="divisions">       2        2        1 </v>
   <v name="usershift">      0.00000000       0.00000000       0.00000000 </v>
   <v name="genvec1">      0.50000000       0.00000000       0.00000000 </v>
   <v name="genvec2">      0.00000000       0.50000000       0.00000000 </v>
   <v name="genvec3">      0.00000000       0.00000000       1.00000000 </v>
   <v name="shift">      0.00000000       0.00000000       0.00000000 </v>
  </generation>
  <varray name="kpointlist" >
   <v>       0.00000000       0.00000000       0.00000000 </v>
   <v>       0.50000000       0.00000000       0.00000000 </v>
   <v>       0.00000000       0.50000000       0.00000000 </v>
   <v>       0.50000000       0.50000000       0.00000000 </v>
  </varray>
  <varray name="weights" >
   <v>       0.25000000 </v>
   <v>       0.25000000 </v>
   <v>       0.25000000 </v>
   <v>       0.25000000 </v>
  </varray>
 </kpoints>
 <parameters>
  <separator name="general" >
   <i type="string" name="SYSTEM">ZrSiO4_U</i>
   <i type="logical" name="LCOMPAT"> F  </i>
  </separator>
  <separator name="electronic" >
   <i type="string" name="PREC">accura</i>
   <i name="ENMAX">    600.00000000</i>
   <i name="ENAUG">    491.96400000</i>
   <i name="EDIFF">      0.00000001</i>
   <i type="int" name="IALGO">    38</i>
   <i type="int" name="IWAVPR">    10</i>
   <i type="int" name="NBANDS">   720</i>
   <i name="NELECT">   1200.00000000</i>
   <i type="int" name="TURBO">     0</i>
   <i type="int" name="IRESTART">     0</i>
   <i type="int" name="NREBOOT">     0</i>
   <i type="int" name="NMIN">     0</i>
   <i name="EREF">      0.00000000</i>
   <separator name="electronic smearing" >
    <i type="int" name="ISMEAR">     0</i>
    <i name="SIGMA">      0.01000000</i>
    <i name="KSPACING">      0.50000000</i>
    <i type="logical" name="KGAMMA"> T  </i>
   </separator>
   <separator name="electronic projectors" >
    <i type="logical" name="LREAL"> F  </i>
    <v name="ROPT">      0.00000000      0.00000000</v>
    <i type="int" name="LMAXPAW">  -100</i>
    <i type="int" name="LMAXMIX">     2</i>
    <i type="logical" name="NLSPLINE"> F  </i>
   </separator>
   <separator name="electronic startup" >
    <i type="int" name="ISTART">     0</i>
    <i type="int" name="ICHARG">     1</i>
    <i type="int" name="INIWAV">     1</i>
   </separator>
   <separator name="electronic spin" >
    <i type="int" name="ISPIN">     1</i>
    <i type="logical" name="LNONCOLLINEAR"> F  </i>
    <v name="MAGMOM">      1.00000000      1.00000000      1.00000000      1.00000000      1.00000000      1.00000000      1.00000000      1.00000000      1.00000000      1.00000000      1.00000000      1.00000000      1.00000000      1.00000000      1.00000000      1.00000000      1.00000000      1.00000000      1.00000000      1.00000000
      1.00000000      1.00000000      1.00000000      1.00000000      1.00000000      1.00000000      1.00000000      1.00000000      1.00000000      1.00000000      1.00000000      1.00000000      1.00000000      1.00000000      1.00000000      1.00000000      1.00000000      1.00000000      1.00000000      1.00000000
      1.00000000      1.00000000      1.00000000      1.00000000      1.00000000      1.00000000      1.00000000      1.00000000      1.00000000      1.00000000      1.00000000      1.00000000      1.00000000      1.00000000      1.00000000      1.00000000      1.00000000      1.00000000      1.00000000      1.00000000
      1.00000000      1.00000000      1.00000000      1.00000000      1.00000000      1.00000000      1.00000000      1.00000000      1.00000000      1.00000000      1.00000000      1.00000000      1.00000000      1.00000000      1.00000000      1.00000000      1.00000000      1.00000000      1.00000000      1.00000000
      1.00000000      1.00000000      1.00000000      1.00000000      1.00000000      1.00000000      1.00000000      1.00000000      1.00000000      1.00000000      1.00000000      1.00000000      1.00000000      1.00000000      1.00000000      1.00000000      1.00000000      1.00000000      1.00000000      1.00000000
      1.00000000      1.00000000      1.00000000      1.00000000      1.00000000      1.00000000      1.00000000      1.00000000      1.00000000      1.00000000      1.00000000      1.00000000      1.00000000      1.00000000      1.00000000      1.00000000      1.00000000      1.00000000      1.00000000      1.00000000
      1.00000000      1.00000000      1.00000000      1.00000000      1.00000000      1.00000000      1.00000000      1.00000000      1.00000000      1.00000000      1.00000000      1.00000000      1.00000000      1.00000000      1.00000000      1.00000000      1.00000000      1.00000000      1.00000000      1.00000000
      1.00000000      1.00000000      1.00000000      1.00000000      1.00000000      1.00000000      1.00000000      1.00000000      1.00000000      1.00000000</v>
    <i name="NUPDOWN">     -1.00000000</i>
    <i type="logical" name="LSORBIT"> F  </i>
    <v name="SAXIS">      0.00000000      0.00000000      1.00000000</v>
    <i type="logical" name="LSPIRAL"> F  </i>
    <v name="QSPIRAL">      0.00000000      0.00000000      0.00000000</v>
    <i type="logical" name="LZEROZ"> F  </i>
   </separator>
   <separator name="electronic exchange-correlation" >
    <i type="logical" name="LASPH"> F  </i>
    <i type="logical" name="LMETAGGA"> F  </i>
   </separator>
   <separator name="electronic convergence" >
    <i type="int" name="NELM">    60</i>
    <i type="int" name="NELMDL">     0</i>
    <i type="int" name="NELMIN">     2</i>
    <i name="ENINI">    600.00000000</i>
    <separator name="electronic convergence detail" >
     <i type="logical" name="LDIAG"> T  </i>
     <i type="logical" name="LSUBROT"> T  </i>
     <i name="WEIMIN">      0.00000000</i>
     <i name="EBREAK">      0.00000000</i>
     <i name="DEPER">      0.30000000</i>
     <i type="int" name="NRMM">     4</i>
     <i name="TIME">      0.40000000</i>
    </separator>
   </separator>
   <separator name="electronic mixer" >
    <i name="AMIX">      0.40000000</i>
    <i name="BMIX">      1.00000000</i>
    <i name="AMIN">      0.10000000</i>
    <i name="AMIX_MAG">      1.60000000</i>
    <i name="BMIX_MAG">      1.00000000</i>
    <separator name="electronic mixer details" >
     <i type="int" name="IMIX">     4</i>
     <i type="int" name="MAXMIX">   -45</i>
     <i name="WC">    100.00000000</i>
     <i type="int" name="INIMIX">     1</i>
     <i type="int" name="MIXPRE">     1</i>
     <i type="int" name="MREMOVE">     5</i>
    </separator>
   </separator>
   <separator name="electronic dipolcorrection" >
    <i type="logical" name="LDIPOL"> F  </i>
    <i type="logical" name="LMONO"> F  </i>
    <i type="int" name="IDIPOL">     0</i>
    <i name="EPSILON">      1.00000000</i>
    <v name="DIPOL">   -100.00000000   -100.00000000   -100.00000000</v>
    <i name="EFIELD">      0.00000000</i>
   </separator>
  </separator>
  <separator name="grids" >
   <i type="int" name="NGX">   126</i>
   <i type="int" name="NGY">   126</i>
   <i type="int" name="NGZ">   210</i>
   <i type="int" name="NGXF">   252</i>
   <i type="int" name="NGYF">   252</i>
   <i type="int" name="NGZF">   420</i>
   <i type="logical" name="ADDGRID"> T  </i>
  </separator>
  <separator name="ionic" >
   <i type="int" name="NSW">     0</i>
   <i type="int" name="IBRION">    -1</i>
   <i type="int" name="ISIF">     2</i>
   <i name="PSTRESS">      0.00000000</i>
   <i name="EDIFFG">      0.00000010</i>
   <i type="int" name="NFREE">     0</i>
   <i name="POTIM">      0.50000000</i>
   <i name="SMASS">     -3.00000000</i>
   <i name="SCALEE">      1.00000000</i>
  </separator>
  <separator name="ionic md" >
   <i name="TEBEG">      0.00010000</i>
   <i name="TEEND">      0.00010000</i>
   <i type="int" name="NBLOCK">     1</i>
   <i type="int" name="KBLOCK">     1</i>
   <i type="int" name="NPACO">   256</i>
   <i name="APACO">     16.00000000</i>
  </separator>
  <separator name="symmetry" >
   <i type="int" name="ISYM">     2</i>
   <i name="SYMPREC">      0.00001000</i>
  </separator>
  <separator name="dos" >
   <i type="logical" name="LORBIT"> T  </i>
   <v name="RWIGS">     -1.00000000     -1.00000000</v>
   <i type="int" name="NEDOS">   301</i>
   <i name="EMIN">     10.00000000</i>
   <i name="EMAX">    -10.00000000</i>
   <i name="EFERMI">      0.00000000</i>
  </separator>
  <separator name="writing" >
   <i type="int" name="NWRITE">     2</i>
   <i type="logical" name="LWAVE"> F  </i>
   <i type="logical" name="LCHARG"> F  </i>
   <i type="logical" name="LPARD"> F  </i>
   <i type="logical" name="LVTOT"> F  </i>
   <i type="logical" name="LVHAR"> F  </i>
   <i type="logical" name="LELF"> F  </i>
   <i type="logical" name="LOPTICS"> F  </i>
   <v name="STM">      0.00000000      0.00000000      0.00000000      0.00000000      0.00000000      0.00000000      0.00000000</v>
  </separator>
  <separator name="performance" >
   <i type="int" name="NPAR">     8</i>
   <i type="int" name="NSIM">     1</i>
   <i type="int" name="NBLK">    -1</i>
   <i type="logical" name="LPLANE"> F  </i>
   <i type="logical" name="LSCALAPACK"> T  </i>
   <i type="logical" name="LSCAAWARE"> F  </i>
   <i type="logical" name="LSCALU"> F  </i>
   <i type="logical" name="LASYNC"> F  </i>
   <i type="logical" name="LORBITALREAL"> F  </i>
  </separator>
  <separator name="miscellaneous" >
   <i type="int" name="IDIOT">     3</i>
   <i type="logical" name="LMUSIC"> F  </i>
   <v name="POMASS">     95.94000000     32.06600000</v>
   <v name="DARWINR">      0.00000000      0.00000000</v>
   <v name="DARWINV">      1.00000000      1.00000000</v>
   <i type="logical" name="LCORR"> T  </i>
  </separator>
  <i type="logical" name="GGA_COMPAT"> T  </i>
  <i type="logical" name="LBERRY"> F  </i>
  <i type="int" name="ICORELEVEL">     0</i>
  <i type="logical" name="LDAU"> F  </i>
  <i type="int" name="I_CONSTRAINED_M">     0</i>
  <separator name="electronic exchange-correlation" >
   <i type="string" name="GGA">--</i>
   <i type="int" name="VOSKOWN">     0</i>
   <i type="logical" name="LHFCALC"> F  </i>
   <i type="string" name="PRECFOCK"></i>
   <i type="logical" name="LSYMGRAD"> F  </i>
   <i type="logical" name="LHFONE"> F  </i>
   <i type="logical" name="LRHFCALC"> F  </i>
   <i type="logical" name="LTHOMAS"> F  </i>
   <i type="logical" name="LMODELHF"> F  </i>
   <i name="ENCUT4O">     -1.00000000</i>
   <i type="int" name="EXXOEP">     0</i>
   <i type="int" name="FOURORBIT">     0</i>
   <i name="AEXX">      0.00000000</i>
   <i name="HFALPHA">      0.00000000</i>
   <i name="MCALPHA">      0.00000000</i>
   <i name="ALDAX">      1.00000000</i>
   <i name="AGGAX">      1.00000000</i>
   <i name="ALDAC">      1.00000000</i>
   <i name="AGGAC">      1.00000000</i>
   <i type="int" name="NKREDX">     1</i>
   <i type="int" name="NKREDY">     1</i>
   <i type="int" name="NKREDZ">     1</i>
   <i type="logical" name="SHIFTRED"> F  </i>
   <i type="logical" name="ODDONLY"> F  </i>
   <i type="logical" name="EVENONLY"> F  </i>
   <i type="int" name="LMAXFOCK">     0</i>
   <i type="int" name="NMAXFOCKAE">     0</i>
   <i type="logical" name="LFOCKAEDFT"> F  </i>
   <i name="HFSCREEN">      0.00000000</i>
   <i name="HFSCREENC">      0.00000000</i>
   <i type="int" name="NBANDSGWLOW">     0</i>
  </separator>
  <separator name="vdW DFT" >
   <i type="logical" name="LUSE_VDW"> F  </i>
   <i name="Zab_VDW">     -0.84910000</i>
   <i name="PARAM1">      0.12340000</i>
   <i name="PARAM2">      1.00000000</i>
   <i name="PARAM3">      0.00000000</i>
  </separator>
  <separator name="model GW" >
   <i type="int" name="MODEL_GW">     0</i>
   <i name="MODEL_EPS0">     22.07799716</i>
   <i name="MODEL_ALPHA">      1.00000000</i>
  </separator>
  <separator name="linear response parameters" >
   <i type="logical" name="LEPSILON"> F  </i>
   <i type="logical" name="LRPA"> F  </i>
   <i type="logical" name="LNABLA"> F  </i>
   <i type="logical" name="LVEL"> F  </i>
   <i type="int" name="KINTER">     0</i>
   <i name="CSHIFT">      0.10000000</i>
   <i name="OMEGAMAX">     -1.00000000</i>
   <i name="DEG_THRESHOLD">      0.00200000</i>
  </separator>
  <separator name="orbital magnetization" >
   <i type="logical" name="NUCIND"> F  </i>
   <v name="MAGPOS">      0.00000000      0.00000000      0.00000000</v>
   <i type="logical" name="LNICSALL"> T  </i>
   <i type="logical" name="ORBITALMAG"> F  </i>
   <i type="logical" name="LMAGBLOCH"> F  </i>
   <i type="logical" name="LCHIMAG"> F  </i>
   <i type="logical" name="LGAUGE"> T  </i>
   <i type="int" name="MAGATOM">     0</i>
   <v name="MAGDIPOL">      0.00000000      0.00000000      0.00000000</v>
   <v name="AVECCONST">      0.00000000      0.00000000      0.00000000</v>
  </separator>
  <separator name="response functions" >
   <i type="logical" name="LADDER"> F  </i>
   <i type="logical" name="LFXC"> F  </i>
   <i type="logical" name="LHARTREE"> T  </i>
   <i type="int" name="IBSE">     0</i>
   <i type="logical" name="LTCTE"> F  </i>
   <i type="logical" name="LTETE"> F  </i>
   <i type="logical" name="LTRIPLET"> F  </i>
   <i type="logical" name="LFXCEPS"> F  </i>
   <i type="logical" name="L2ORDER"> F  </i>
   <i type="logical" name="LUSEW"> F  </i>
   <i name="ENCUTGW">     -2.00000000</i>
   <i name="ENCUTGWSOFT">     -2.00000000</i>
   <i name="ENCUTLF">     -1.00000000</i>
   <i type="int" name="LMAXMP2">    -1</i>
   <i name="SCISSOR">      0.00000000</i>
   <i type="int" name="NOMEGA">     0</i>
   <i type="int" name="NOMEGAR">     0</i>
   <i type="int" name="NBANDSGW">    -1</i>
   <i type="int" name="NBANDSO">    -1</i>
   <i type="int" name="NBANDSV">    -1</i>
   <i type="int" name="NELM">     1</i>
   <i type="int" name="DIM">     3</i>
   <i type="int" name="ANTIRES">     0</i>
   <i name="OMEGAMAX">    -30.00000000</i>
   <i name="OMEGATL">   -200.00000000</i>
   <i type="int" name="OMEGAGRID">     0</i>
   <i name="CSHIFT">     -0.10000000</i>
   <i type="logical" name="SELFENERGY"> F  </i>
   <i type="logical" name="LSPECTRAL"> F  </i>
   <i type="logical" name="ODDONLYGW"> F  </i>
   <i type="logical" name="EVENONLYGW"> F  </i>
   <i type="int" name="NKREDLFX">     1</i>
   <i type="int" name="NKREDLFY">     1</i>
   <i type="int" name="NKREDLFZ">     1</i>
   <i type="int" name="MAXMEM">  1800</i>
   <i type="int" name="TELESCOPE">     0</i>
  </separator>
 </parameters>
 <atominfo>
  <atoms>     150 </atoms>
  <types>       2 </types>
  <array name="atoms" >
   <dimension dim="1">ion</dimension>
   <field type="string">element</field>
   <field type="int">atomtype</field>
   <set>
    <rc><c>Mo</c><c>   1</c></rc>
    <rc><c>Mo</c><c>   1</c></rc>
    <rc><c>Mo</c><c>   1</c></rc>
    <rc><c>Mo</c><c>   1</c></rc>
    <rc><c>Mo</c><c>   1</c></rc>
    <rc><c>Mo</c><c>   1</c></rc>
    <rc><c>Mo</c><c>   1</c></rc>
    <rc><c>Mo</c><c>   1</c></rc>
    <rc><c>Mo</c><c>   1</c></rc>
    <rc><c>Mo</c><c>   1</c></rc>
    <rc><c>Mo</c><c>   1</c></rc>
    <rc><c>Mo</c><c>   1</c></rc>
    <rc><c>Mo</c><c>   1</c></rc>
    <rc><c>Mo</c><c>   1</c></rc>
    <rc><c>Mo</c><c>   1</c></rc>
    <rc><c>Mo</c><c>   1</c></rc>
    <rc><c>Mo</c><c>   1</c></rc>
    <rc><c>Mo</c><c>   1</c></rc>
    <rc><c>Mo</c><c>   1</c></rc>
    <rc><c>Mo</c><c>   1</c></rc>
    <rc><c>Mo</c><c>   1</c></rc>
    <rc><c>Mo</c><c>   1</c></rc>
    <rc><c>Mo</c><c>   1</c></rc>
    <rc><c>Mo</c><c>   1</c></rc>
    <rc><c>Mo</c><c>   1</c></rc>
    <rc><c>Mo</c><c>   1</c></rc>
    <rc><c>Mo</c><c>   1</c></rc>
    <rc><c>Mo</c><c>   1</c></rc>
    <rc><c>Mo</c><c>   1</c></rc>
    <rc><c>Mo</c><c>   1</c></rc>
    <rc><c>Mo</c><c>   1</c></rc>
    <rc><c>Mo</c><c>   1</c></rc>
    <rc><c>Mo</c><c>   1</c></rc>
    <rc><c>Mo</c><c>   1</c></rc>
    <rc><c>Mo</c><c>   1</c></rc>
    <rc><c>Mo</c><c>   1</c></rc>
    <rc><c>Mo</c><c>   1</c></rc>
    <rc><c>Mo</c><c>   1</c></rc>
    <rc><c>Mo</c><c>   1</c></rc>
    <rc><c>Mo</c><c>   1</c></rc>
    <rc><c>Mo</c><c>   1</c></rc>
    <rc><c>Mo</c><c>   1</c></rc>
    <rc><c>Mo</c><c>   1</c></rc>
    <rc><c>Mo</c><c>   1</c></rc>
    <rc><c>Mo</c><c>   1</c></rc>
    <rc><c>Mo</c><c>   1</c></rc>
    <rc><c>Mo</c><c>   1</c></rc>
    <rc><c>Mo</c><c>   1</c></rc>
    <rc><c>Mo</c><c>   1</c></rc>
    <rc><c>Mo</c><c>   1</c></rc>
    <rc><c>S </c><c>   2</c></rc>
    <rc><c>S </c><c>   2</c></rc>
    <rc><c>S </c><c>   2</c></rc>
    <rc><c>S </c><c>   2</c></rc>
    <rc><c>S </c><c>   2</c></rc>
    <rc><c>S </c><c>   2</c></rc>
    <rc><c>S </c><c>   2</c></rc>
    <rc><c>S </c><c>   2</c></rc>
    <rc><c>S </c><c>   2</c></rc>
    <rc><c>S </c><c>   2</c></rc>
    <rc><c>S </c><c>   2</c></rc>
    <rc><c>S </c><c>   2</c></rc>
    <rc><c>S </c><c>   2</c></rc>
    <rc><c>S </c><c>   2</c></rc>
    <rc><c>S </c><c>   2</c></rc>
    <rc><c>S </c><c>   2</c></rc>
    <rc><c>S </c><c>   2</c></rc>
    <rc><c>S </c><c>   2</c></rc>
    <rc><c>S </c><c>   2</c></rc>
    <rc><c>S </c><c>   2</c></rc>
    <rc><c>S </c><c>   2</c></rc>
    <rc><c>S </c><c>   2</c></rc>
    <rc><c>S </c><c>   2</c></rc>
    <rc><c>S </c><c>   2</c></rc>
    <rc><c>S </c><c>   2</c></rc>
    <rc><c>S </c><c>   2</c></rc>
    <rc><c>S </c><c>   2</c></rc>
    <rc><c>S </c><c>   2</c></rc>
    <rc><c>S </c><c>   2</c></rc>
    <rc><c>S </c><c>   2</c></rc>
    <rc><c>S </c><c>   2</c></rc>
    <rc><c>S </c><c>   2</c></rc>
    <rc><c>S </c><c>   2</c></rc>
    <rc><c>S </c><c>   2</c></rc>
    <rc><c>S </c><c>   2</c></rc>
    <rc><c>S </c><c>   2</c></rc>
    <rc><c>S </c><c>   2</c></rc>
    <rc><c>S </c><c>   2</c></rc>
    <rc><c>S </c><c>   2</c></rc>
    <rc><c>S </c><c>   2</c></rc>
    <rc><c>S </c><c>   2</c></rc>
    <rc><c>S </c><c>   2</c></rc>
    <rc><c>S </c><c>   2</c></rc>
    <rc><c>S </c><c>   2</c></rc>
    <rc><c>S </c><c>   2</c></rc>
    <rc><c>S </c><c>   2</c></rc>
    <rc><c>S </c><c>   2</c></rc>
    <rc><c>S </c><c>   2</c></rc>
    <rc><c>S </c><c>   2</c></rc>
    <rc><c>S </c><c>   2</c></rc>
    <rc><c>S </c><c>   2</c></rc>
    <rc><c>S </c><c>   2</c></rc>
    <rc><c>S </c><c>   2</c></rc>
    <rc><c>S </c><c>   2</c></rc>
    <rc><c>S </c><c>   2</c></rc>
    <rc><c>S </c><c>   2</c></rc>
    <rc><c>S </c><c>   2</c></rc>
    <rc><c>S </c><c>   2</c></rc>
    <rc><c>S </c><c>   2</c></rc>
    <rc><c>S </c><c>   2</c></rc>
    <rc><c>S </c><c>   2</c></rc>
    <rc><c>S </c><c>   2</c></rc>
    <rc><c>S </c><c>   2</c></rc>
    <rc><c>S </c><c>   2</c></rc>
    <rc><c>S </c><c>   2</c></rc>
    <rc><c>S </c><c>   2</c></rc>
    <rc><c>S </c><c>   2</c></rc>
    <rc><c>S </c><c>   2</c></rc>
    <rc><c>S </c><c>   2</c></rc>
    <rc><c>S </c><c>   2</c></rc>
    <rc><c>S </c><c>   2</c></rc>
    <rc><c>S </c><c>   2</c></rc>
    <rc><c>S </c><c>   2</c></rc>
    <rc><c>S </c><c>   2</c></rc>
    <rc><c>S </c><c>   2</c></rc>
    <rc><c>S </c><c>   2</c></rc>
    <rc><c>S </c><c>   2</c></rc>
    <rc><c>S </c><c>   2</c></rc>
    <rc><c>S </c><c>   2</c></rc>
    <rc><c>S </c><c>   2</c></rc>
    <rc><c>S </c><c>   2</c></rc>
    <rc><c>S </c><c>   2</c></rc>
    <rc><c>S </c><c>   2</c></rc>
    <rc><c>S </c><c>   2</c></rc>
    <rc><c>S </c><c>   2</c></rc>
    <rc><c>S </c><c>   2</c></rc>
    <rc><c>S </c><c>   2</c></rc>
    <rc><c>S </c><c>   2</c></rc>
    <rc><c>S </c><c>   2</c></rc>
    <rc><c>S </c><c>   2</c></rc>
    <rc><c>S </c><c>   2</c></rc>
    <rc><c>S </c><c>   2</c></rc>
    <rc><c>S </c><c>   2</c></rc>
    <rc><c>S </c><c>   2</c></rc>
    <rc><c>S </c><c>   2</c></rc>
    <rc><c>S </c><c>   2</c></rc>
    <rc><c>S </c><c>   2</c></rc>
    <rc><c>S </c><c>   2</c></rc>
    <rc><c>S </c><c>   2</c></rc>
    <rc><c>S </c><c>   2</c></rc>
   </set>
  </array>
  <array name="atomtypes" >
   <dimension dim="1">type</dimension>
   <field type="int">atomspertype</field>
   <field type="string">element</field>
   <field>mass</field>
   <field>valence</field>
   <field type="string">pseudopotential</field>
   <set>
    <rc><c>  50</c><c>Mo</c><c>     95.94000000</c><c>     12.00000000</c><c> PAW Mo_pv 08Jan2002                    </c></rc>
    <rc><c> 100</c><c>S </c><c>     32.06600000</c><c>      6.00000000</c><c>  PAW S_h 21Jan2003                     </c></rc>
   </set>
  </array>
 </atominfo>
 <structure name="initialpos" >
  <crystal>
   <varray name="basis" >
    <v>      15.65451448      -0.00000001       0.00000000 </v>
    <v>      -7.82725475      13.55720592       0.00000000 </v>
    <v>       0.00000000       0.00000000      26.00697779 </v>
   </varray>
   <i name="volume">   5519.49928921 </i>
   <varray name="rec_basis" >
    <v>       0.06387934       0.03688074       0.00000000 </v>
    <v>       0.00000000       0.07376151       0.00000000 </v>
    <v>       0.00000000       0.00000000       0.03845122 </v>
   </varray>
  </crystal>
  <varray name="positions" >
   <v>       0.06666667       0.13333333       0.17304109 </v>
   <v>       0.26666667       0.13333333       0.17304109 </v>
   <v>       0.46666667       0.13333333       0.17304109 </v>
   <v>       0.66666667       0.13333333       0.17304109 </v>
   <v>       0.86666667       0.13333333       0.17304109 </v>
   <v>       0.06666667       0.33333333       0.17304109 </v>
   <v>       0.26666667       0.33333333       0.17304109 </v>
   <v>       0.46666667       0.33333333       0.17304109 </v>
   <v>       0.66666667       0.33333333       0.17304109 </v>
   <v>       0.86666667       0.33333333       0.17304109 </v>
   <v>       0.06666667       0.53333333       0.17304109 </v>
   <v>       0.26666667       0.53333333       0.17304109 </v>
   <v>       0.46666667       0.53333333       0.17304109 </v>
   <v>       0.66666667       0.53333333       0.17304109 </v>
   <v>       0.86666667       0.53333333       0.17304109 </v>
   <v>       0.06666667       0.73333333       0.17304109 </v>
   <v>       0.26666667       0.73333333       0.17304109 </v>
   <v>       0.46666667       0.73333333       0.17304109 </v>
   <v>       0.66666667       0.73333333       0.17304109 </v>
   <v>       0.86666667       0.73333333       0.17304109 </v>
   <v>       0.06666667       0.93333333       0.17304109 </v>
   <v>       0.26666667       0.93333333       0.17304109 </v>
   <v>       0.46666667       0.93333333       0.17304109 </v>
   <v>       0.66666667       0.93333333       0.17304109 </v>
   <v>       0.86666667       0.93333333       0.17304109 </v>
   <v>       0.13333333       0.06666667       0.40532935 </v>
   <v>       0.33333333       0.06666667       0.40532935 </v>
   <v>       0.53333333       0.06666667       0.40532935 </v>
   <v>       0.73333333       0.06666667       0.40532935 </v>
   <v>       0.93333333       0.06666667       0.40532935 </v>
   <v>       0.13333333       0.26666667       0.40532935 </v>
   <v>       0.33333333       0.26666667       0.40532935 </v>
   <v>       0.53333333       0.26666667       0.40532935 </v>
   <v>       0.73333333       0.26666667       0.40532935 </v>
   <v>       0.93333333       0.26666667       0.40532935 </v>
   <v>       0.13333333       0.46666667       0.40532935 </v>
   <v>       0.33333333       0.46666667       0.40532935 </v>
   <v>       0.53333333       0.46666667       0.40532935 </v>
   <v>       0.73333333       0.46666667       0.40532935 </v>
   <v>       0.93333333       0.46666667       0.40532935 </v>
   <v>       0.13333333       0.66666667       0.40532935 </v>
   <v>       0.33333333       0.66666667       0.40532935 </v>
   <v>       0.53333333       0.66666667       0.40532935 </v>
   <v>       0.73333333       0.66666667       0.40532935 </v>
   <v>       0.93333333       0.66666667       0.40532935 </v>
   <v>       0.13333333       0.86666667       0.40532935 </v>
   <v>       0.33333333       0.86666667       0.40532935 </v>
   <v>       0.53333333       0.86666667       0.40532935 </v>
   <v>       0.73333333       0.86666667       0.40532935 </v>
   <v>       0.93333333       0.86666667       0.40532935 </v>
   <v>       0.13333333       0.06666667       0.11318662 </v>
   <v>       0.33333333       0.06666667       0.11318662 </v>
   <v>       0.53333333       0.06666667       0.11318662 </v>
   <v>       0.73333333       0.06666667       0.11318662 </v>
   <v>       0.93333333       0.06666667       0.11318662 </v>
   <v>       0.13333333       0.26666667       0.11318662 </v>
   <v>       0.33333333       0.26666667       0.11318662 </v>
   <v>       0.53333333       0.26666667       0.11318662 </v>
   <v>       0.73333333       0.26666667       0.11318662 </v>
   <v>       0.93333333       0.26666667       0.11318662 </v>
   <v>       0.13333333       0.46666667       0.11318662 </v>
   <v>       0.33333333       0.46666667       0.11318662 </v>
   <v>       0.53333333       0.46666667       0.11318662 </v>
   <v>       0.73333333       0.46666667       0.11318662 </v>
   <v>       0.93333333       0.46666667       0.11318662 </v>
   <v>       0.13333333       0.66666667       0.11318662 </v>
   <v>       0.33333333       0.66666667       0.11318662 </v>
   <v>       0.53333333       0.66666667       0.11318662 </v>
   <v>       0.73333333       0.66666667       0.11318662 </v>
   <v>       0.93333333       0.66666667       0.11318662 </v>
   <v>       0.13333333       0.86666667       0.11318662 </v>
   <v>       0.33333333       0.86666667       0.11318662 </v>
   <v>       0.53333333       0.86666667       0.11318662 </v>
   <v>       0.73333333       0.86666667       0.11318662 </v>
   <v>       0.93333333       0.86666667       0.11318662 </v>
   <v>       0.13300390       0.06666667       0.23268557 </v>
   <v>       0.33333333       0.06666667       0.23301500 </v>
   <v>       0.53333333       0.06666667       0.23301500 </v>
   <v>       0.73333333       0.06666667       0.23301500 </v>
   <v>       0.93333333       0.06666667       0.23301500 </v>
   <v>       0.13333333       0.26666667       0.23301500 </v>
   <v>       0.33333333       0.26666667       0.23301500 </v>
   <v>       0.53333333       0.26666667       0.23301500 </v>
   <v>       0.73333333       0.26666667       0.23301500 </v>
   <v>       0.93333333       0.26666667       0.23301500 </v>
   <v>       0.13333333       0.46666667       0.23301500 </v>
   <v>       0.33333333       0.46666667       0.23301500 </v>
   <v>       0.53333333       0.46666667       0.23301500 </v>
   <v>       0.73333333       0.46666667       0.23301500 </v>
   <v>       0.93333333       0.46666667       0.23301500 </v>
   <v>       0.13333333       0.66666667       0.23301500 </v>
   <v>       0.33333333       0.66666667       0.23301500 </v>
   <v>       0.53333333       0.66666667       0.23301500 </v>
   <v>       0.73333333       0.66666667       0.23301500 </v>
   <v>       0.93333333       0.66666667       0.23301500 </v>
   <v>       0.13333333       0.86666667       0.23301500 </v>
   <v>       0.33333333       0.86666667       0.23301500 </v>
   <v>       0.53333333       0.86666667       0.23301500 </v>
   <v>       0.73333333       0.86666667       0.23301500 </v>
   <v>       0.93333333       0.86666667       0.23301500 </v>
   <v>       0.06666667       0.13333333       0.34535543 </v>
   <v>       0.26666667       0.13333333       0.34535543 </v>
   <v>       0.46666667       0.13333333       0.34535543 </v>
   <v>       0.66666667       0.13333333       0.34535543 </v>
   <v>       0.86666667       0.13333333       0.34535543 </v>
   <v>       0.06666667       0.33333333       0.34535543 </v>
   <v>       0.26666667       0.33333333       0.34535543 </v>
   <v>       0.46666667       0.33333333       0.34535543 </v>
   <v>       0.66666667       0.33333333       0.34535543 </v>
   <v>       0.86666667       0.33333333       0.34535543 </v>
   <v>       0.06666667       0.53333333       0.34535543 </v>
   <v>       0.26666667       0.53333333       0.34535543 </v>
   <v>       0.46666667       0.53333333       0.34535543 </v>
   <v>       0.66666667       0.53333333       0.34535543 </v>
   <v>       0.86666667       0.53333333       0.34535543 </v>
   <v>       0.06666667       0.73333333       0.34535543 </v>
   <v>       0.26666667       0.73333333       0.34535543 </v>
   <v>       0.46666667       0.73333333       0.34535543 </v>
   <v>       0.66666667       0.73333333       0.34535543 </v>
   <v>       0.86666667       0.73333333       0.34535543 </v>
   <v>       0.06666667       0.93333333       0.34535543 </v>
   <v>       0.26666667       0.93333333       0.34535543 </v>
   <v>       0.46666667       0.93333333       0.34535543 </v>
   <v>       0.66666667       0.93333333       0.34535543 </v>
   <v>       0.86666667       0.93333333       0.34535543 </v>
   <v>       0.06666667       0.13333333       0.46518382 </v>
   <v>       0.26666667       0.13333333       0.46518382 </v>
   <v>       0.46666667       0.13333333       0.46518382 </v>
   <v>       0.66666667       0.13333333       0.46518382 </v>
   <v>       0.86666667       0.13333333       0.46518382 </v>
   <v>       0.06666667       0.33333333       0.46518382 </v>
   <v>       0.26666667       0.33333333       0.46518382 </v>
   <v>       0.46666667       0.33333333       0.46518382 </v>
   <v>       0.66666667       0.33333333       0.46518382 </v>
   <v>       0.86666667       0.33333333       0.46518382 </v>
   <v>       0.06666667       0.53333333       0.46518382 </v>
   <v>       0.26666667       0.53333333       0.46518382 </v>
   <v>       0.46666667       0.53333333       0.46518382 </v>
   <v>       0.66666667       0.53333333       0.46518382 </v>
   <v>       0.86666667       0.53333333       0.46518382 </v>
   <v>       0.06666667       0.73333333       0.46518382 </v>
   <v>       0.26666667       0.73333333       0.46518382 </v>
   <v>       0.46666667       0.73333333       0.46518382 </v>
   <v>       0.66666667       0.73333333       0.46518382 </v>
   <v>       0.86666667       0.73333333       0.46518382 </v>
   <v>       0.06666667       0.93333333       0.46518382 </v>
   <v>       0.26666667       0.93333333       0.46518382 </v>
   <v>       0.46666667       0.93333333       0.46518382 </v>
   <v>       0.66666667       0.93333333       0.46518382 </v>
   <v>       0.86666667       0.93333333       0.46518382 </v>
  </varray>
 </structure>
 <calculation>
  <scstep>
   <time name="dav">******** 1584.01</time>
   <time name="total">******** 1588.70</time>
   <energy>
    <i name="alphaZ">   2096.25038681 </i>
    <i name="ewald"> 360974.02272858 </i>
    <i name="hartreedc">-445132.52191750 </i>
    <i name="XCdc">   2153.03558458 </i>
    <i name="pawpsdc">  49961.83574437 </i>
    <i name="pawaedc"> -47918.29686678 </i>
    <i name="eentropy">     -0.00283052 </i>
    <i name="bandstr">  -3160.51383169 </i>
    <i name="atom">  92113.52951886 </i>
    <i name="e_fr_energy">  11087.33851670 </i>
    <i name="e_wo_entrp">  11087.34134722 </i>
    <i name="e_0_energy">  11087.33993196 </i>
   </energy>
  </scstep>
  <scstep>
   <time name="dav">******** 1644.69</time>
   <time name="total"> 1644.88 1644.88</time>
   <energy>
    <i name="e_fr_energy">   -267.47994612 </i>
    <i name="e_wo_entrp">   -267.47994612 </i>
    <i name="e_0_energy">   -267.47994612 </i>
   </energy>
  </scstep>
  <scstep>
   <time name="dav">******** 1639.21</time>
   <time name="total"> 1639.41 1639.41</time>
   <energy>
    <i name="e_fr_energy">  -1231.97877436 </i>
    <i name="e_wo_entrp">  -1231.97877436 </i>
    <i name="e_0_energy">  -1231.97877436 </i>
   </energy>
  </scstep>
  <scstep>
   <time name="dav">******** 1805.83</time>
   <time name="total"> 1806.03 1806.03</time>
   <energy>
    <i name="e_fr_energy">  -1284.07350694 </i>
    <i name="e_wo_entrp">  -1284.07350694 </i>
    <i name="e_0_energy">  -1284.07350694 </i>
   </energy>
  </scstep>
  <scstep>
   <time name="dav">******** 1993.34</time>
   <time name="total">85769.30 2074.45</time>
   <energy>
    <i name="e_fr_energy">  -1286.12628613 </i>
    <i name="e_wo_entrp">  -1286.12628613 </i>
    <i name="e_0_energy">  -1286.12628613 </i>
   </energy>
  </scstep>
  <scstep>
   <time name="dav">******** 1797.85</time>
   <time name="total"> 1883.35 1883.35</time>
   <energy>
    <i name="e_fr_energy">  -1231.42182914 </i>
    <i name="e_wo_entrp">  -1231.42182914 </i>
    <i name="e_0_energy">  -1231.42182914 </i>
   </energy>
  </scstep>
  <scstep>
   <time name="dav">******** 1760.13</time>
   <time name="total"> 1845.65 1845.65</time>
   <energy>
    <i name="e_fr_energy">  -1216.81462637 </i>
    <i name="e_wo_entrp">  -1216.81462637 </i>
    <i name="e_0_energy">  -1216.81462637 </i>
   </energy>
  </scstep>
  <scstep>
   <time name="dav">******** 1665.90</time>
   <time name="total"> 1751.60 1751.60</time>
   <energy>
    <i name="e_fr_energy">  -1214.54891945 </i>
    <i name="e_wo_entrp">  -1214.54891945 </i>
    <i name="e_0_energy">  -1214.54891945 </i>
   </energy>
  </scstep>
  <scstep>
   <time name="dav">******** 1923.22</time>
   <time name="total"> 2008.91 2008.91</time>
   <energy>
    <i name="e_fr_energy">  -1214.46731906 </i>
    <i name="e_wo_entrp">  -1214.46731906 </i>
    <i name="e_0_energy">  -1214.46731906 </i>
   </energy>
  </scstep>
  <scstep>
   <time name="dav">******** 1804.29</time>
   <time name="total"> 1889.85 1889.85</time>
   <energy>
    <i name="e_fr_energy">  -1214.41305355 </i>
    <i name="e_wo_entrp">  -1214.41305355 </i>
    <i name="e_0_energy">  -1214.41305355 </i>
   </energy>
  </scstep>
  <scstep>
   <time name="dav">******** 1780.45</time>
   <time name="total"> 1866.39 1866.39</time>
   <energy>
    <i name="e_fr_energy">  -1214.40538416 </i>
    <i name="e_wo_entrp">  -1214.40538416 </i>
    <i name="e_0_energy">  -1214.40538416 </i>
   </energy>
  </scstep>
  <scstep>
   <time name="dav">******** 1746.45</time>
   <time name="total"> 1832.13 1832.13</time>
   <energy>
    <i name="e_fr_energy">  -1214.40660452 </i>
    <i name="e_wo_entrp">  -1214.40660452 </i>
    <i name="e_0_energy">  -1214.40660452 </i>
   </energy>
  </scstep>
  <scstep>
   <time name="dav">******** 1674.55</time>
   <time name="total"> 1760.92 1760.92</time>
   <energy>
    <i name="e_fr_energy">  -1214.41030932 </i>
    <i name="e_wo_entrp">  -1214.41030932 </i>
    <i name="e_0_energy">  -1214.41030932 </i>
   </energy>
  </scstep>
  <scstep>
   <time name="dav">******** 1649.89</time>
   <time name="total"> 1736.11 1736.11</time>
   <energy>
    <i name="e_fr_energy">  -1214.41456145 </i>
    <i name="e_wo_entrp">  -1214.41456145 </i>
    <i name="e_0_energy">  -1214.41456145 </i>
   </energy>
  </scstep>
  <scstep>
   <time name="dav">******** 1768.16</time>
   <time name="total"> 1853.81 1853.81</time>
   <energy>
    <i name="e_fr_energy">  -1214.41797731 </i>
    <i name="e_wo_entrp">  -1214.41797731 </i>
    <i name="e_0_energy">  -1214.41797731 </i>
   </energy>
  </scstep>
  <scstep>
   <time name="dav">******** 1668.04</time>
   <time name="total"> 1753.53 1753.53</time>
   <energy>
    <i name="e_fr_energy">  -1214.42096129 </i>
    <i name="e_wo_entrp">  -1214.42096129 </i>
    <i name="e_0_energy">  -1214.42096129 </i>
   </energy>
  </scstep>
  <scstep>
   <time name="dav">******** 1602.48</time>
   <time name="total"> 1688.00 1688.00</time>
   <energy>
    <i name="e_fr_energy">  -1214.42368452 </i>
    <i name="e_wo_entrp">  -1214.42368452 </i>
    <i name="e_0_energy">  -1214.42368452 </i>
   </energy>
  </scstep>
  <scstep>
   <time name="dav">******** 1657.15</time>
   <time name="total"> 1742.54 1742.54</time>
   <energy>
    <i name="e_fr_energy">  -1214.42452185 </i>
    <i name="e_wo_entrp">  -1214.42452185 </i>
    <i name="e_0_energy">  -1214.42452185 </i>
   </energy>
  </scstep>
  <scstep>
   <time name="dav">******** 1603.00</time>
   <time name="total"> 1688.59 1688.59</time>
   <energy>
    <i name="e_fr_energy">  -1214.42522145 </i>
    <i name="e_wo_entrp">  -1214.42522145 </i>
    <i name="e_0_energy">  -1214.42522145 </i>
   </energy>
  </scstep>
  <scstep>
   <time name="dav">******** 1612.37</time>
   <time name="total"> 1697.76 1697.76</time>
   <energy>
    <i name="e_fr_energy">  -1214.42558381 </i>
    <i name="e_wo_entrp">  -1214.42558381 </i>
    <i name="e_0_energy">  -1214.42558381 </i>
   </energy>
  </scstep>
  <scstep>
   <time name="dav">******** 1614.39</time>
   <time name="total"> 1699.58 1699.58</time>
   <energy>
    <i name="e_fr_energy">  -1214.42569021 </i>
    <i name="e_wo_entrp">  -1214.42569021 </i>
    <i name="e_0_energy">  -1214.42569021 </i>
   </energy>
  </scstep>
  <scstep>
   <time name="dav">******** 1623.95</time>
   <time name="total"> 1709.10 1709.10</time>
   <energy>
    <i name="e_fr_energy">  -1214.42579424 </i>
    <i name="e_wo_entrp">  -1214.42579424 </i>
    <i name="e_0_energy">  -1214.42579424 </i>
   </energy>
  </scstep>
  <scstep>
   <time name="dav">******** 1607.48</time>
   <time name="total"> 1692.69 1692.69</time>
   <energy>
    <i name="e_fr_energy">  -1214.42592269 </i>
    <i name="e_wo_entrp">  -1214.42592269 </i>
    <i name="e_0_energy">  -1214.42592269 </i>
   </energy>
  </scstep>
  <scstep>
   <time name="dav">******** 1608.79</time>
   <time name="total"> 1693.93 1693.93</time>
   <energy>
    <i name="e_fr_energy">  -1214.42606546 </i>
    <i name="e_wo_entrp">  -1214.42606546 </i>
    <i name="e_0_energy">  -1214.42606546 </i>
   </energy>
  </scstep>
  <scstep>
   <time name="dav">******** 1552.18</time>
   <time name="total"> 1637.20 1637.20</time>
   <energy>
    <i name="e_fr_energy">  -1214.42616067 </i>
    <i name="e_wo_entrp">  -1214.42616067 </i>
    <i name="e_0_energy">  -1214.42616067 </i>
   </energy>
  </scstep>
  <scstep>
   <time name="dav">******** 1528.64</time>
   <time name="total"> 1613.92 1613.92</time>
   <energy>
    <i name="e_fr_energy">  -1214.42620260 </i>
    <i name="e_wo_entrp">  -1214.42620260 </i>
    <i name="e_0_energy">  -1214.42620260 </i>
   </energy>
  </scstep>
  <scstep>
   <time name="dav">******** 1507.84</time>
   <time name="total"> 1592.89 1592.89</time>
   <energy>
    <i name="e_fr_energy">  -1214.42623916 </i>
    <i name="e_wo_entrp">  -1214.42623916 </i>
    <i name="e_0_energy">  -1214.42623916 </i>
   </energy>
  </scstep>
  <scstep>
   <time name="dav">******** 1429.17</time>
   <time name="total"> 1514.20 1514.20</time>
   <energy>
    <i name="e_fr_energy">  -1214.42624983 </i>
    <i name="e_wo_entrp">  -1214.42624983 </i>
    <i name="e_0_energy">  -1214.42624983 </i>
   </energy>
  </scstep>
  <scstep>
   <time name="dav">******** 1315.30</time>
   <time name="total"> 1400.36 1400.36</time>
   <energy>
    <i name="e_fr_energy">  -1214.42625403 </i>
    <i name="e_wo_entrp">  -1214.42625403 </i>
    <i name="e_0_energy">  -1214.42625403 </i>
   </energy>
  </scstep>
  <scstep>
   <time name="dav">******** 1229.45</time>
   <time name="total"> 1314.62 1314.62</time>
   <energy>
    <i name="e_fr_energy">  -1214.42625475 </i>
    <i name="e_wo_entrp">  -1214.42625475 </i>
    <i name="e_0_energy">  -1214.42625475 </i>
   </energy>
  </scstep>
  <scstep>
   <time name="dav">******** 1136.05</time>
   <time name="total"> 1221.27 1221.27</time>
   <energy>
    <i name="e_fr_energy">  -1214.42625503 </i>
    <i name="e_wo_entrp">  -1214.42625503 </i>
    <i name="e_0_energy">  -1214.42625503 </i>
   </energy>
  </scstep>
  <scstep>
   <time name="dav">******** 1150.41</time>
   <time name="total"> 1235.61 1235.61</time>
   <energy>
    <i name="e_fr_energy">  -1214.42625521 </i>
    <i name="e_wo_entrp">  -1214.42625521 </i>
    <i name="e_0_energy">  -1214.42625521 </i>
   </energy>
  </scstep>
  <scstep>
   <time name="dav">******** 1107.30</time>
   <time name="total"> 1192.47 1192.47</time>
   <energy>
    <i name="e_fr_energy">  -1214.42625529 </i>
    <i name="e_wo_entrp">  -1214.42625529 </i>
    <i name="e_0_energy">  -1214.42625529 </i>
   </energy>
  </scstep>
  <scstep>
   <time name="dav">******** 1071.25</time>
   <time name="total"> 1156.42 1156.42</time>
   <energy>
    <i name="e_fr_energy">  -1214.42625530 </i>
    <i name="e_wo_entrp">  -1214.42625530 </i>
    <i name="e_0_energy">  -1214.42625530 </i>
   </energy>
  </scstep>
  <scstep>
   <time name="dav">******** 1045.26</time>
   <time name="total">******** 1049.83</time>
   <energy>
    <i name="alphaZ">   2096.25038681 </i>
    <i name="ewald"> 360974.02272858 </i>
    <i name="hartreedc">-445005.31235954 </i>
    <i name="XCdc">   2130.76102179 </i>
    <i name="pawpsdc">  53566.11531015 </i>
    <i name="pawaedc"> -51762.97597066 </i>
    <i name="eentropy">      0.00000000 </i>
    <i name="bandstr"> -15326.81689129 </i>
    <i name="atom">  92113.52951886 </i>
    <i name="e_fr_energy">  -1214.42625531 </i>
    <i name="e_wo_entrp">  -1214.42625531 </i>
    <i name="e_0_energy">  -1214.42625531 </i>
   </energy>
  </scstep>
  <structure>
   <crystal>
    <varray name="basis" >
     <v>      15.65451448      -0.00000001       0.00000000 </v>
     <v>      -7.82725475      13.55720592       0.00000000 </v>
     <v>       0.00000000       0.00000000      26.00697779 </v>
    </varray>
    <i name="volume">   5519.49928921 </i>
    <varray name="rec_basis" >
     <v>       0.06387934       0.03688074       0.00000000 </v>
     <v>       0.00000000       0.07376151       0.00000000 </v>
     <v>       0.00000000       0.00000000       0.03845122 </v>
    </varray>
   </crystal>
   <varray name="positions" >
    <v>       0.06666667       0.13333333       0.17304109 </v>
    <v>       0.26666667       0.13333333       0.17304109 </v>
    <v>       0.46666667       0.13333333       0.17304109 </v>
    <v>       0.66666667       0.13333333       0.17304109 </v>
    <v>       0.86666667       0.13333333       0.17304109 </v>
    <v>       0.06666667       0.33333333       0.17304109 </v>
    <v>       0.26666667       0.33333333       0.17304109 </v>
    <v>       0.46666667       0.33333333       0.17304109 </v>
    <v>       0.66666667       0.33333333       0.17304109 </v>
    <v>       0.86666667       0.33333333       0.17304109 </v>
    <v>       0.06666667       0.53333333       0.17304109 </v>
    <v>       0.26666667       0.53333333       0.17304109 </v>
    <v>       0.46666667       0.53333333       0.17304109 </v>
    <v>       0.66666667       0.53333333       0.17304109 </v>
    <v>       0.86666667       0.53333333       0.17304109 </v>
    <v>       0.06666667       0.73333333       0.17304109 </v>
    <v>       0.26666667       0.73333333       0.17304109 </v>
    <v>       0.46666667       0.73333333       0.17304109 </v>
    <v>       0.66666667       0.73333333       0.17304109 </v>
    <v>       0.86666667       0.73333333       0.17304109 </v>
    <v>       0.06666667       0.93333333       0.17304109 </v>
    <v>       0.26666667       0.93333333       0.17304109 </v>
    <v>       0.46666667       0.93333333       0.17304109 </v>
    <v>       0.66666667       0.93333333       0.17304109 </v>
    <v>       0.86666667       0.93333333       0.17304109 </v>
    <v>       0.13333333       0.06666667       0.40532935 </v>
    <v>       0.33333333       0.06666667       0.40532935 </v>
    <v>       0.53333333       0.06666667       0.40532935 </v>
    <v>       0.73333333       0.06666667       0.40532935 </v>
    <v>       0.93333333       0.06666667       0.40532935 </v>
    <v>       0.13333333       0.26666667       0.40532935 </v>
    <v>       0.33333333       0.26666667       0.40532935 </v>
    <v>       0.53333333       0.26666667       0.40532935 </v>
    <v>       0.73333333       0.26666667       0.40532935 </v>
    <v>       0.93333333       0.26666667       0.40532935 </v>
    <v>       0.13333333       0.46666667       0.40532935 </v>
    <v>       0.33333333       0.46666667       0.40532935 </v>
    <v>       0.53333333       0.46666667       0.40532935 </v>
    <v>       0.73333333       0.46666667       0.40532935 </v>
    <v>       0.93333333       0.46666667       0.40532935 </v>
    <v>       0.13333333       0.66666667       0.40532935 </v>
    <v>       0.33333333       0.66666667       0.40532935 </v>
    <v>       0.53333333       0.66666667       0.40532935 </v>
    <v>       0.73333333       0.66666667       0.40532935 </v>
    <v>       0.93333333       0.66666667       0.40532935 </v>
    <v>       0.13333333       0.86666667       0.40532935 </v>
    <v>       0.33333333       0.86666667       0.40532935 </v>
    <v>       0.53333333       0.86666667       0.40532935 </v>
    <v>       0.73333333       0.86666667       0.40532935 </v>
    <v>       0.93333333       0.86666667       0.40532935 </v>
    <v>       0.13333333       0.06666667       0.11318662 </v>
    <v>       0.33333333       0.06666667       0.11318662 </v>
    <v>       0.53333333       0.06666667       0.11318662 </v>
    <v>       0.73333333       0.06666667       0.11318662 </v>
    <v>       0.93333333       0.06666667       0.11318662 </v>
    <v>       0.13333333       0.26666667       0.11318662 </v>
    <v>       0.33333333       0.26666667       0.11318662 </v>
    <v>       0.53333333       0.26666667       0.11318662 </v>
    <v>       0.73333333       0.26666667       0.11318662 </v>
    <v>       0.93333333       0.26666667       0.11318662 </v>
    <v>       0.13333333       0.46666667       0.11318662 </v>
    <v>       0.33333333       0.46666667       0.11318662 </v>
    <v>       0.53333333       0.46666667       0.11318662 </v>
    <v>       0.73333333       0.46666667       0.11318662 </v>
    <v>       0.93333333       0.46666667       0.11318662 </v>
    <v>       0.13333333       0.66666667       0.11318662 </v>
    <v>       0.33333333       0.66666667       0.11318662 </v>
    <v>       0.53333333       0.66666667       0.11318662 </v>
    <v>       0.73333333       0.66666667       0.11318662 </v>
    <v>       0.93333333       0.66666667       0.11318662 </v>
    <v>       0.13333333       0.86666667       0.11318662 </v>
    <v>       0.33333333       0.86666667       0.11318662 </v>
    <v>       0.53333333       0.86666667       0.11318662 </v>
    <v>       0.73333333       0.86666667       0.11318662 </v>
    <v>       0.93333333       0.86666667       0.11318662 </v>
    <v>       0.13300390       0.06666667       0.23268557 </v>
    <v>       0.33333333       0.06666667       0.23301500 </v>
    <v>       0.53333333       0.06666667       0.23301500 </v>
    <v>       0.73333333       0.06666667       0.23301500 </v>
    <v>       0.93333333       0.06666667       0.23301500 </v>
    <v>       0.13333333       0.26666667       0.23301500 </v>
    <v>       0.33333333       0.26666667       0.23301500 </v>
    <v>       0.53333333       0.26666667       0.23301500 </v>
    <v>       0.73333333       0.26666667       0.23301500 </v>
    <v>       0.93333333       0.26666667       0.23301500 </v>
    <v>       0.13333333       0.46666667       0.23301500 </v>
    <v>       0.33333333       0.46666667       0.23301500 </v>
    <v>       0.53333333       0.46666667       0.23301500 </v>
    <v>       0.73333333       0.46666667       0.23301500 </v>
    <v>       0.93333333       0.46666667       0.23301500 </v>
    <v>       0.13333333       0.66666667       0.23301500 </v>
    <v>       0.33333333       0.66666667       0.23301500 </v>
    <v>       0.53333333       0.66666667       0.23301500 </v>
    <v>       0.73333333       0.66666667       0.23301500 </v>
    <v>       0.93333333       0.66666667       0.23301500 </v>
    <v>       0.13333333       0.86666667       0.23301500 </v>
    <v>       0.33333333       0.86666667       0.23301500 </v>
    <v>       0.53333333       0.86666667       0.23301500 </v>
    <v>       0.73333333       0.86666667       0.23301500 </v>
    <v>       0.93333333       0.86666667       0.23301500 </v>
    <v>       0.06666667       0.13333333       0.34535543 </v>
    <v>       0.26666667       0.13333333       0.34535543 </v>
    <v>       0.46666667       0.13333333       0.34535543 </v>
    <v>       0.66666667       0.13333333       0.34535543 </v>
    <v>       0.86666667       0.13333333       0.34535543 </v>
    <v>       0.06666667       0.33333333       0.34535543 </v>
    <v>       0.26666667       0.33333333       0.34535543 </v>
    <v>       0.46666667       0.33333333       0.34535543 </v>
    <v>       0.66666667       0.33333333       0.34535543 </v>
    <v>       0.86666667       0.33333333       0.34535543 </v>
    <v>       0.06666667       0.53333333       0.34535543 </v>
    <v>       0.26666667       0.53333333       0.34535543 </v>
    <v>       0.46666667       0.53333333       0.34535543 </v>
    <v>       0.66666667       0.53333333       0.34535543 </v>
    <v>       0.86666667       0.53333333       0.34535543 </v>
    <v>       0.06666667       0.73333333       0.34535543 </v>
    <v>       0.26666667       0.73333333       0.34535543 </v>
    <v>       0.46666667       0.73333333       0.34535543 </v>
    <v>       0.66666667       0.73333333       0.34535543 </v>
    <v>       0.86666667       0.73333333       0.34535543 </v>
    <v>       0.06666667       0.93333333       0.34535543 </v>
    <v>       0.26666667       0.93333333       0.34535543 </v>
    <v>       0.46666667       0.93333333       0.34535543 </v>
    <v>       0.66666667       0.93333333       0.34535543 </v>
    <v>       0.86666667       0.93333333       0.34535543 </v>
    <v>       0.06666667       0.13333333       0.46518382 </v>
    <v>       0.26666667       0.13333333       0.46518382 </v>
    <v>       0.46666667       0.13333333       0.46518382 </v>
    <v>       0.66666667       0.13333333       0.46518382 </v>
    <v>       0.86666667       0.13333333       0.46518382 </v>
    <v>       0.06666667       0.33333333       0.46518382 </v>
    <v>       0.26666667       0.33333333       0.46518382 </v>
    <v>       0.46666667       0.33333333       0.46518382 </v>
    <v>       0.66666667       0.33333333       0.46518382 </v>
    <v>       0.86666667       0.33333333       0.46518382 </v>
    <v>       0.06666667       0.53333333       0.46518382 </v>
    <v>       0.26666667       0.53333333       0.46518382 </v>
    <v>       0.46666667       0.53333333       0.46518382 </v>
    <v>       0.66666667       0.53333333       0.46518382 </v>
    <v>       0.86666667       0.53333333       0.46518382 </v>
    <v>       0.06666667       0.73333333       0.46518382 </v>
    <v>       0.26666667       0.73333333       0.46518382 </v>
    <v>       0.46666667       0.73333333       0.46518382 </v>
    <v>       0.66666667       0.73333333       0.46518382 </v>
    <v>       0.86666667       0.73333333       0.46518382 </v>
    <v>       0.06666667       0.93333333       0.46518382 </v>
    <v>       0.26666667       0.93333333       0.46518382 </v>
    <v>       0.46666667       0.93333333       0.46518382 </v>
    <v>       0.66666667       0.93333333       0.46518382 </v>
    <v>       0.86666667       0.93333333       0.46518382 </v>
   </varray>
  </structure>
  <varray name="forces" >
   <v>      -0.05193417       0.02514465      -0.05867546 </v>
   <v>       0.00400826       0.00715834      -0.02345285 </v>
   <v>      -0.00046606      -0.00018501       0.00024211 </v>
   <v>      -0.00005306      -0.00009061       0.00067031 </v>
   <v>      -0.00023673       0.00031553      -0.00044499 </v>
   <v>      -0.00006663      -0.00047195      -0.00029018 </v>
   <v>       0.00232713       0.00079886      -0.00116755 </v>
   <v>      -0.00007848       0.00019005       0.00008975 </v>
   <v>       0.00009567       0.00004833       0.00059511 </v>
   <v>      -0.00002593       0.00000982       0.00062742 </v>
   <v>       0.00008181       0.00007635       0.00068270 </v>
   <v>      -0.00006719      -0.00009069       0.00063690 </v>
   <v>       0.00001252      -0.00019744       0.00081019 </v>
   <v>      -0.00007961       0.00001382       0.00065207 </v>
   <v>       0.00000153      -0.00007196       0.00061322 </v>
   <v>      -0.00039241       0.00060517       0.00004379 </v>
   <v>      -0.00006915      -0.00005323       0.00073548 </v>
   <v>       0.00001814       0.00000245       0.00066651 </v>
   <v>       0.00021718       0.00012820       0.00070284 </v>
   <v>      -0.00017135      -0.00045901      -0.00026336 </v>
   <v>      -0.00838679      -0.03211511      -0.04088742 </v>
   <v>       0.00041633       0.00110064      -0.00012310 </v>
   <v>      -0.00004612       0.00008956       0.00082680 </v>
   <v>       0.00015746       0.00012100       0.00062086 </v>
   <v>      -0.00098008      -0.00191194      -0.00221521 </v>
   <v>      -0.00018308       0.00000380       0.00001706 </v>
   <v>      -0.00008967       0.00008809      -0.00101354 </v>
   <v>      -0.00001585       0.00001414      -0.00071185 </v>
   <v>       0.00000160      -0.00002654      -0.00068166 </v>
   <v>       0.00004511       0.00017421      -0.00098578 </v>
   <v>      -0.00015646      -0.00012230      -0.00091000 </v>
   <v>      -0.00000265      -0.00012551      -0.00107415 </v>
   <v>       0.00006782       0.00002535      -0.00064623 </v>
   <v>       0.00001726       0.00000991      -0.00070028 </v>
   <v>       0.00000061       0.00002088      -0.00061795 </v>
   <v>       0.00001658       0.00000668      -0.00068362 </v>
   <v>       0.00000360      -0.00007563      -0.00068573 </v>
   <v>      -0.00000392      -0.00001209      -0.00071622 </v>
   <v>       0.00001486       0.00000590      -0.00069844 </v>
   <v>      -0.00000675      -0.00000930      -0.00071405 </v>
   <v>      -0.00000590       0.00000820      -0.00069190 </v>
   <v>       0.00001221       0.00000894      -0.00066676 </v>
   <v>      -0.00000689      -0.00000054      -0.00067310 </v>
   <v>      -0.00001394       0.00001450      -0.00069431 </v>
   <v>       0.00003047      -0.00004315      -0.00063125 </v>
   <v>      -0.00016104      -0.00003567      -0.00092970 </v>
   <v>      -0.00007242       0.00004263      -0.00072470 </v>
   <v>      -0.00000551      -0.00001214      -0.00067559 </v>
   <v>       0.00006552       0.00003461      -0.00063632 </v>
   <v>       0.00013663       0.00002229      -0.00106616 </v>
   <v>       0.00175120      -0.00000216      -0.01500624 </v>
   <v>       0.00076024      -0.00051925       0.00090635 </v>
   <v>      -0.00005526       0.00015176       0.00041135 </v>
   <v>      -0.00000543      -0.00004184       0.00041812 </v>
   <v>      -0.00242776      -0.00201965      -0.00102684 </v>
   <v>       0.00095740       0.00362045      -0.00125144 </v>
   <v>       0.00034307       0.00042846       0.00112869 </v>
   <v>       0.00005359       0.00003731       0.00068661 </v>
   <v>       0.00000444       0.00003166       0.00042171 </v>
   <v>      -0.00020411       0.00010780       0.00072127 </v>
   <v>       0.00000668       0.00008436       0.00043379 </v>
   <v>      -0.00000693      -0.00005694       0.00070312 </v>
   <v>       0.00008174      -0.00018960       0.00039612 </v>
   <v>       0.00002490      -0.00001264       0.00042268 </v>
   <v>      -0.00003262      -0.00002225       0.00042022 </v>
   <v>      -0.00002277      -0.00005694       0.00043027 </v>
   <v>       0.00000128      -0.00000219       0.00043721 </v>
   <v>       0.00000502       0.00000780       0.00040897 </v>
   <v>       0.00010619       0.00004769       0.00039934 </v>
   <v>      -0.00001415      -0.00014667       0.00070357 </v>
   <v>       0.00253621      -0.00063042      -0.00027833 </v>
   <v>      -0.00011860       0.00006892       0.00075469 </v>
   <v>       0.00001180       0.00000659       0.00042367 </v>
   <v>      -0.00002858      -0.00000804       0.00065358 </v>
   <v>      -0.00125494      -0.00085463       0.00016851 </v>
   <v>       0.06289713      -0.00020120       0.13419960 </v>
   <v>      -0.00423881      -0.00048131       0.00427921 </v>
   <v>       0.00000615       0.00006063       0.00105394 </v>
   <v>       0.00002020       0.00002068       0.00105114 </v>
   <v>      -0.00316030      -0.00030861       0.00364587 </v>
   <v>       0.00012004       0.00146128       0.00401605 </v>
   <v>      -0.00112661      -0.00204401       0.00391082 </v>
   <v>       0.00021227       0.00012183       0.00073308 </v>
   <v>      -0.00003552       0.00000494       0.00082847 </v>
   <v>       0.00002044      -0.00001732       0.00081179 </v>
   <v>      -0.00003722      -0.00002347       0.00103198 </v>
   <v>       0.00000924       0.00006663       0.00076758 </v>
   <v>       0.00002863      -0.00003268       0.00106951 </v>
   <v>      -0.00001420      -0.00001344       0.00083093 </v>
   <v>      -0.00002919       0.00000255       0.00082127 </v>
   <v>      -0.00004865      -0.00003848       0.00103435 </v>
   <v>      -0.00002100       0.00000717       0.00081889 </v>
   <v>       0.00000009      -0.00001182       0.00082160 </v>
   <v>       0.00003067       0.00001588       0.00106905 </v>
   <v>      -0.00000409      -0.00010803       0.00077116 </v>
   <v>      -0.00045311       0.00262270       0.00433510 </v>
   <v>       0.00017806      -0.00009310       0.00070956 </v>
   <v>      -0.00002692       0.00001613       0.00082019 </v>
   <v>       0.00006209       0.00003489       0.00083119 </v>
   <v>      -0.00056392      -0.00124618       0.00359656 </v>
   <v>       0.00064261      -0.00029603      -0.00105846 </v>
   <v>      -0.00103058      -0.00066994      -0.00204000 </v>
   <v>       0.00001552       0.00001384      -0.00069039 </v>
   <v>       0.00000902      -0.00000187      -0.00075072 </v>
   <v>      -0.00007413       0.00005630      -0.00075346 </v>
   <v>      -0.00008878       0.00004062      -0.00076304 </v>
   <v>       0.00011680      -0.00015052      -0.00059201 </v>
   <v>       0.00001986       0.00000541      -0.00068403 </v>
   <v>      -0.00000111      -0.00000455      -0.00077067 </v>
   <v>       0.00001346       0.00000254      -0.00076319 </v>
   <v>      -0.00000598      -0.00000539      -0.00075470 </v>
   <v>      -0.00001808       0.00001071      -0.00076018 </v>
   <v>       0.00001792       0.00002193      -0.00073156 </v>
   <v>      -0.00000232       0.00000987      -0.00074593 </v>
   <v>       0.00001229       0.00001168      -0.00076402 </v>
   <v>      -0.00000821      -0.00006299      -0.00073151 </v>
   <v>      -0.00000927      -0.00002194      -0.00074652 </v>
   <v>      -0.00000492      -0.00000105      -0.00077713 </v>
   <v>      -0.00001679      -0.00002620      -0.00074973 </v>
   <v>       0.00001166      -0.00005774      -0.00071559 </v>
   <v>       0.00012986       0.00096278      -0.00155143 </v>
   <v>      -0.00015348       0.00015229      -0.00067051 </v>
   <v>       0.00001824       0.00001210      -0.00073084 </v>
   <v>      -0.00002531      -0.00000261      -0.00076264 </v>
   <v>       0.00011041      -0.00000745      -0.00050929 </v>
   <v>       0.00000011      -0.00000441      -0.00044514 </v>
   <v>      -0.00000117      -0.00000088      -0.00043376 </v>
   <v>       0.00000096       0.00000468      -0.00042100 </v>
   <v>       0.00000428      -0.00001586      -0.00042959 </v>
   <v>       0.00002299      -0.00000698      -0.00043502 </v>
   <v>       0.00001411      -0.00000938      -0.00044022 </v>
   <v>       0.00000134       0.00006661      -0.00039787 </v>
   <v>       0.00000353      -0.00000480      -0.00041782 </v>
   <v>      -0.00001114      -0.00000690      -0.00043415 </v>
   <v>       0.00001262      -0.00000021      -0.00042797 </v>
   <v>       0.00001140       0.00000724      -0.00042382 </v>
   <v>      -0.00001447       0.00001458      -0.00043495 </v>
   <v>      -0.00000155       0.00001506      -0.00042418 </v>
   <v>      -0.00001132       0.00001212      -0.00043122 </v>
   <v>       0.00000654       0.00001685      -0.00042891 </v>
   <v>      -0.00000296       0.00000269      -0.00043189 </v>
   <v>       0.00000788      -0.00001878      -0.00042896 </v>
   <v>      -0.00000450      -0.00000201      -0.00042711 </v>
   <v>      -0.00000718      -0.00000705      -0.00043359 </v>
   <v>       0.00000970       0.00001160      -0.00042347 </v>
   <v>      -0.00000360      -0.00000275      -0.00043783 </v>
   <v>       0.00006075      -0.00003889      -0.00039703 </v>
   <v>       0.00001462      -0.00000909      -0.00042398 </v>
   <v>      -0.00001173      -0.00000026      -0.00043933 </v>
   <v>      -0.00004847      -0.00003332      -0.00039322 </v>
  </varray>
  <varray name="stress" >
   <v>      -0.31281557      -0.00584981       0.02225118 </v>
   <v>      -0.00584992      -0.31280759      -0.00009675 </v>
   <v>       0.02225121      -0.00009679      -0.27000915 </v>
  </varray>
  <energy>
   <i name="e_fr_energy">  -1214.42625531 </i>
   <i name="e_wo_entrp">  -1214.42625531 </i>
   <i name="e_0_energy">      0.00000000 </i>
  </energy>
  <time name="totalsc">********60136.53</time>
  <eigenvalues>
   <array>
    <dimension dim="1">band</dimension>
    <dimension dim="2">kpoint</dimension>
    <dimension dim="3">spin</dimension>
    <field>eigene</field>
    <field>occ</field>
    <set>
     <set comment="spin 1">
      <set comment="kpoint 1">
       <r>  -35.2378    1.0000 </r>
       <r>  -35.2373    1.0000 </r>
       <r>  -35.2373    1.0000 </r>
       <r>  -35.2373    1.0000 </r>
       <r>  -35.2371    1.0000 </r>
       <r>  -35.2371    1.0000 </r>
       <r>  -35.2369    1.0000 </r>
       <r>  -35.2369    1.0000 </r>
       <r>  -35.2369    1.0000 </r>
       <r>  -35.2369    1.0000 </r>
       <r>  -35.2369    1.0000 </r>
       <r>  -35.2369    1.0000 </r>
       <r>  -35.2277    1.0000 </r>
       <r>  -35.2272    1.0000 </r>
       <r>  -35.2272    1.0000 </r>
       <r>  -35.2271    1.0000 </r>
       <r>  -35.2271    1.0000 </r>
       <r>  -35.2270    1.0000 </r>
       <r>  -35.2268    1.0000 </r>
       <r>  -35.2268    1.0000 </r>
       <r>  -35.2268    1.0000 </r>
       <r>  -35.2268    1.0000 </r>
       <r>  -35.2268    1.0000 </r>
       <r>  -35.2268    1.0000 </r>
       <r>  -35.1509    1.0000 </r>
       <r>  -35.1506    1.0000 </r>
       <r>  -35.1506    1.0000 </r>
       <r>  -35.1504    1.0000 </r>
       <r>  -35.1504    1.0000 </r>
       <r>  -35.1503    1.0000 </r>
       <r>  -35.1501    1.0000 </r>
       <r>  -35.1501    1.0000 </r>
       <r>  -35.1501    1.0000 </r>
       <r>  -35.1501    1.0000 </r>
       <r>  -35.1501    1.0000 </r>
       <r>  -35.1501    1.0000 </r>
       <r>  -35.1085    1.0000 </r>
       <r>  -35.1081    1.0000 </r>
       <r>  -35.0769    1.0000 </r>
       <r>  -35.0768    1.0000 </r>
       <r>  -35.0768    1.0000 </r>
       <r>  -35.0767    1.0000 </r>
       <r>  -35.0767    1.0000 </r>
       <r>  -35.0765    1.0000 </r>
       <r>  -35.0764    1.0000 </r>
       <r>  -35.0764    1.0000 </r>
       <r>  -35.0764    1.0000 </r>
       <r>  -35.0764    1.0000 </r>
       <r>  -35.0764    1.0000 </r>
       <r>  -35.0764    1.0000 </r>
       <r>  -35.0350    1.0000 </r>
       <r>  -35.0350    1.0000 </r>
       <r>  -35.0350    1.0000 </r>
       <r>  -35.0349    1.0000 </r>
       <r>  -35.0348    1.0000 </r>
       <r>  -35.0347    1.0000 </r>
       <r>  -35.0346    1.0000 </r>
       <r>  -35.0346    1.0000 </r>
       <r>  -35.0346    1.0000 </r>
       <r>  -35.0346    1.0000 </r>
       <r>  -35.0346    1.0000 </r>
       <r>  -35.0346    1.0000 </r>
       <r>  -35.0301    1.0000 </r>
       <r>  -35.0300    1.0000 </r>
       <r>  -35.0300    1.0000 </r>
       <r>  -35.0299    1.0000 </r>
       <r>  -35.0299    1.0000 </r>
       <r>  -35.0296    1.0000 </r>
       <r>  -35.0295    1.0000 </r>
       <r>  -35.0295    1.0000 </r>
       <r>  -35.0295    1.0000 </r>
       <r>  -35.0295    1.0000 </r>
       <r>  -35.0295    1.0000 </r>
       <r>  -35.0295    1.0000 </r>
       <r>  -35.0251    1.0000 </r>
       <r>  -35.0250    1.0000 </r>
       <r>  -35.0250    1.0000 </r>
       <r>  -35.0250    1.0000 </r>
       <r>  -35.0249    1.0000 </r>
       <r>  -35.0247    1.0000 </r>
       <r>  -35.0246    1.0000 </r>
       <r>  -35.0246    1.0000 </r>
       <r>  -35.0246    1.0000 </r>
       <r>  -35.0246    1.0000 </r>
       <r>  -35.0246    1.0000 </r>
       <r>  -35.0246    1.0000 </r>
       <r>  -35.0091    1.0000 </r>
       <r>  -35.0090    1.0000 </r>
       <r>  -35.0090    1.0000 </r>
       <r>  -35.0090    1.0000 </r>
       <r>  -35.0089    1.0000 </r>
       <r>  -35.0087    1.0000 </r>
       <r>  -35.0086    1.0000 </r>
       <r>  -35.0086    1.0000 </r>
       <r>  -35.0086    1.0000 </r>
       <r>  -35.0086    1.0000 </r>
       <r>  -35.0086    1.0000 </r>
       <r>  -35.0086    1.0000 </r>
       <r>  -34.9885    1.0000 </r>
       <r>  -34.9884    1.0000 </r>
       <r>  -34.9883    1.0000 </r>
       <r>  -34.9883    1.0000 </r>
       <r>  -34.9881    1.0000 </r>
       <r>  -34.9881    1.0000 </r>
       <r>  -34.9879    1.0000 </r>
       <r>  -34.9879    1.0000 </r>
       <r>  -34.9879    1.0000 </r>
       <r>  -34.9879    1.0000 </r>
       <r>  -34.9879    1.0000 </r>
       <r>  -34.9879    1.0000 </r>
       <r>  -34.9538    1.0000 </r>
       <r>  -34.9538    1.0000 </r>
       <r>  -34.9537    1.0000 </r>
       <r>  -34.9536    1.0000 </r>
       <r>  -34.9535    1.0000 </r>
       <r>  -34.9534    1.0000 </r>
       <r>  -34.9532    1.0000 </r>
       <r>  -34.9532    1.0000 </r>
       <r>  -34.9532    1.0000 </r>
       <r>  -34.9532    1.0000 </r>
       <r>  -34.9532    1.0000 </r>
       <r>  -34.9532    1.0000 </r>
       <r>  -34.9232    1.0000 </r>
       <r>  -34.9232    1.0000 </r>
       <r>  -34.9230    1.0000 </r>
       <r>  -34.9230    1.0000 </r>
       <r>  -34.9229    1.0000 </r>
       <r>  -34.9226    1.0000 </r>
       <r>  -34.9226    1.0000 </r>
       <r>  -34.9226    1.0000 </r>
       <r>  -34.9226    1.0000 </r>
       <r>  -34.9226    1.0000 </r>
       <r>  -34.9226    1.0000 </r>
       <r>  -34.9226    1.0000 </r>
       <r>  -34.8653    1.0000 </r>
       <r>  -34.8652    1.0000 </r>
       <r>  -34.8651    1.0000 </r>
       <r>  -34.8651    1.0000 </r>
       <r>  -34.8651    1.0000 </r>
       <r>  -34.8650    1.0000 </r>
       <r>  -34.8648    1.0000 </r>
       <r>  -34.8647    1.0000 </r>
       <r>  -34.8647    1.0000 </r>
       <r>  -34.8647    1.0000 </r>
       <r>  -34.8647    1.0000 </r>
       <r>  -34.8647    1.0000 </r>
       <r>  -34.8291    1.0000 </r>
       <r>  -34.8290    1.0000 </r>
       <r>  -34.8286    1.0000 </r>
       <r>  -34.8286    1.0000 </r>
       <r>  -14.6099    1.0000 </r>
       <r>  -14.4296    1.0000 </r>
       <r>  -14.0015    1.0000 </r>
       <r>  -14.0002    1.0000 </r>
       <r>  -14.0002    1.0000 </r>
       <r>  -14.0001    1.0000 </r>
       <r>  -14.0001    1.0000 </r>
       <r>  -13.9999    1.0000 </r>
       <r>  -13.8278    1.0000 </r>
       <r>  -13.8261    1.0000 </r>
       <r>  -13.8261    1.0000 </r>
       <r>  -13.8261    1.0000 </r>
       <r>  -13.8261    1.0000 </r>
       <r>  -13.8260    1.0000 </r>
       <r>  -13.2630    1.0000 </r>
       <r>  -13.0486    1.0000 </r>
       <r>  -13.0471    1.0000 </r>
       <r>  -13.0471    1.0000 </r>
       <r>  -13.0470    1.0000 </r>
       <r>  -13.0470    1.0000 </r>
       <r>  -13.0469    1.0000 </r>
       <r>  -12.9910    1.0000 </r>
       <r>  -12.9909    1.0000 </r>
       <r>  -12.9909    1.0000 </r>
       <r>  -12.9909    1.0000 </r>
       <r>  -12.9908    1.0000 </r>
       <r>  -12.9903    1.0000 </r>
       <r>  -12.9808    1.0000 </r>
       <r>  -12.9060    1.0000 </r>
       <r>  -12.9045    1.0000 </r>
       <r>  -12.9045    1.0000 </r>
       <r>  -12.9044    1.0000 </r>
       <r>  -12.9044    1.0000 </r>
       <r>  -12.9044    1.0000 </r>
       <r>  -12.7629    1.0000 </r>
       <r>  -12.7609    1.0000 </r>
       <r>  -12.7609    1.0000 </r>
       <r>  -12.7609    1.0000 </r>
       <r>  -12.7608    1.0000 </r>
       <r>  -12.7607    1.0000 </r>
       <r>  -12.7585    1.0000 </r>
       <r>  -12.7580    1.0000 </r>
       <r>  -12.7580    1.0000 </r>
       <r>  -12.7580    1.0000 </r>
       <r>  -12.7579    1.0000 </r>
       <r>  -12.7578    1.0000 </r>
       <r>  -12.6436    1.0000 </r>
       <r>  -12.6422    1.0000 </r>
       <r>  -12.6422    1.0000 </r>
       <r>  -12.6422    1.0000 </r>
       <r>  -12.6421    1.0000 </r>
       <r>  -12.6421    1.0000 </r>
       <r>  -12.5599    1.0000 </r>
       <r>  -12.5597    1.0000 </r>
       <r>  -12.5597    1.0000 </r>
       <r>  -12.5597    1.0000 </r>
       <r>  -12.5596    1.0000 </r>
       <r>  -12.5595    1.0000 </r>
       <r>  -12.4485    1.0000 </r>
       <r>  -12.4482    1.0000 </r>
       <r>  -12.4482    1.0000 </r>
       <r>  -12.4482    1.0000 </r>
       <r>  -12.4481    1.0000 </r>
       <r>  -12.4481    1.0000 </r>
       <r>  -12.4173    1.0000 </r>
       <r>  -12.4161    1.0000 </r>
       <r>  -12.4161    1.0000 </r>
       <r>  -12.4161    1.0000 </r>
       <r>  -12.4160    1.0000 </r>
       <r>  -12.4160    1.0000 </r>
       <r>  -12.3500    1.0000 </r>
       <r>  -12.3487    1.0000 </r>
       <r>  -12.3486    1.0000 </r>
       <r>  -12.3486    1.0000 </r>
       <r>  -12.3485    1.0000 </r>
       <r>  -12.3485    1.0000 </r>
       <r>  -12.2949    1.0000 </r>
       <r>  -12.2928    1.0000 </r>
       <r>  -12.2928    1.0000 </r>
       <r>  -12.2927    1.0000 </r>
       <r>  -12.2927    1.0000 </r>
       <r>  -12.2926    1.0000 </r>
       <r>  -12.2283    1.0000 </r>
       <r>  -12.2271    1.0000 </r>
       <r>  -12.2271    1.0000 </r>
       <r>  -12.2271    1.0000 </r>
       <r>  -12.2271    1.0000 </r>
       <r>  -12.2270    1.0000 </r>
       <r>  -12.2025    1.0000 </r>
       <r>  -12.2023    1.0000 </r>
       <r>  -12.2023    1.0000 </r>
       <r>  -12.2023    1.0000 </r>
       <r>  -12.2022    1.0000 </r>
       <r>  -12.2022    1.0000 </r>
       <r>  -12.1787    1.0000 </r>
       <r>  -12.1773    1.0000 </r>
       <r>  -12.1773    1.0000 </r>
       <r>  -12.1773    1.0000 </r>
       <r>  -12.1772    1.0000 </r>
       <r>  -12.1772    1.0000 </r>
       <r>   -6.4330    1.0000 </r>
       <r>   -6.1424    1.0000 </r>
       <r>   -6.1421    1.0000 </r>
       <r>   -6.1419    1.0000 </r>
       <r>   -6.1416    1.0000 </r>
       <r>   -6.1416    1.0000 </r>
       <r>   -6.1414    1.0000 </r>
       <r>   -5.9361    1.0000 </r>
       <r>   -5.9358    1.0000 </r>
       <r>   -5.9355    1.0000 </r>
       <r>   -5.9352    1.0000 </r>
       <r>   -5.9352    1.0000 </r>
       <r>   -5.9351    1.0000 </r>
       <r>   -5.8613    1.0000 </r>
       <r>   -5.8600    1.0000 </r>
       <r>   -5.8599    1.0000 </r>
       <r>   -5.8599    1.0000 </r>
       <r>   -5.8598    1.0000 </r>
       <r>   -5.8597    1.0000 </r>
       <r>   -5.8126    1.0000 </r>
       <r>   -5.8119    1.0000 </r>
       <r>   -5.8113    1.0000 </r>
       <r>   -5.8113    1.0000 </r>
       <r>   -5.8112    1.0000 </r>
       <r>   -5.8112    1.0000 </r>
       <r>   -5.8109    1.0000 </r>
       <r>   -5.6757    1.0000 </r>
       <r>   -5.6757    1.0000 </r>
       <r>   -5.6753    1.0000 </r>
       <r>   -5.6752    1.0000 </r>
       <r>   -5.6752    1.0000 </r>
       <r>   -5.6751    1.0000 </r>
       <r>   -5.6560    1.0000 </r>
       <r>   -5.6559    1.0000 </r>
       <r>   -5.6554    1.0000 </r>
       <r>   -5.6554    1.0000 </r>
       <r>   -5.6554    1.0000 </r>
       <r>   -5.6553    1.0000 </r>
       <r>   -5.6544    1.0000 </r>
       <r>   -5.6532    1.0000 </r>
       <r>   -5.6531    1.0000 </r>
       <r>   -5.6529    1.0000 </r>
       <r>   -5.6529    1.0000 </r>
       <r>   -5.6528    1.0000 </r>
       <r>   -5.6232    1.0000 </r>
       <r>   -5.6228    1.0000 </r>
       <r>   -5.6220    1.0000 </r>
       <r>   -5.6219    1.0000 </r>
       <r>   -5.6218    1.0000 </r>
       <r>   -5.6217    1.0000 </r>
       <r>   -5.4073    1.0000 </r>
       <r>   -5.4067    1.0000 </r>
       <r>   -5.4066    1.0000 </r>
       <r>   -5.4061    1.0000 </r>
       <r>   -5.4061    1.0000 </r>
       <r>   -5.4061    1.0000 </r>
       <r>   -5.2887    1.0000 </r>
       <r>   -5.2868    1.0000 </r>
       <r>   -5.2868    1.0000 </r>
       <r>   -5.2867    1.0000 </r>
       <r>   -5.2867    1.0000 </r>
       <r>   -5.2867    1.0000 </r>
       <r>   -5.1819    1.0000 </r>
       <r>   -5.1819    1.0000 </r>
       <r>   -5.1817    1.0000 </r>
       <r>   -5.1816    1.0000 </r>
       <r>   -5.1814    1.0000 </r>
       <r>   -5.1808    1.0000 </r>
       <r>   -4.9668    1.0000 </r>
       <r>   -4.9667    1.0000 </r>
       <r>   -4.9664    1.0000 </r>
       <r>   -4.9664    1.0000 </r>
       <r>   -4.9663    1.0000 </r>
       <r>   -4.9663    1.0000 </r>
       <r>   -4.6886    1.0000 </r>
       <r>   -4.6885    1.0000 </r>
       <r>   -4.6882    1.0000 </r>
       <r>   -4.6881    1.0000 </r>
       <r>   -4.6881    1.0000 </r>
       <r>   -4.6880    1.0000 </r>
       <r>   -4.5934    1.0000 </r>
       <r>   -4.5932    1.0000 </r>
       <r>   -4.5923    1.0000 </r>
       <r>   -4.5923    1.0000 </r>
       <r>   -4.5923    1.0000 </r>
       <r>   -4.5922    1.0000 </r>
       <r>   -4.4865    1.0000 </r>
       <r>   -4.4858    1.0000 </r>
       <r>   -4.4855    1.0000 </r>
       <r>   -4.4854    1.0000 </r>
       <r>   -4.4853    1.0000 </r>
       <r>   -4.4849    1.0000 </r>
       <r>   -4.4833    1.0000 </r>
       <r>   -4.4829    1.0000 </r>
       <r>   -4.4828    1.0000 </r>
       <r>   -4.4827    1.0000 </r>
       <r>   -4.4827    1.0000 </r>
       <r>   -4.4826    1.0000 </r>
       <r>   -4.2164    1.0000 </r>
       <r>   -4.2158    1.0000 </r>
       <r>   -4.2154    1.0000 </r>
       <r>   -4.2153    1.0000 </r>
       <r>   -4.2152    1.0000 </r>
       <r>   -4.2140    1.0000 </r>
       <r>   -4.1709    1.0000 </r>
       <r>   -4.1699    1.0000 </r>
       <r>   -4.1698    1.0000 </r>
       <r>   -4.1697    1.0000 </r>
       <r>   -4.1697    1.0000 </r>
       <r>   -4.1696    1.0000 </r>
       <r>   -4.1155    1.0000 </r>
       <r>   -4.1144    1.0000 </r>
       <r>   -4.1143    1.0000 </r>
       <r>   -4.1142    1.0000 </r>
       <r>   -4.1141    1.0000 </r>
       <r>   -4.1138    1.0000 </r>
       <r>   -3.9838    1.0000 </r>
       <r>   -3.9836    1.0000 </r>
       <r>   -3.9836    1.0000 </r>
       <r>   -3.9832    1.0000 </r>
       <r>   -3.9832    1.0000 </r>
       <r>   -3.9832    1.0000 </r>
       <r>   -3.9764    1.0000 </r>
       <r>   -3.9758    1.0000 </r>
       <r>   -3.9752    1.0000 </r>
       <r>   -3.9751    1.0000 </r>
       <r>   -3.9750    1.0000 </r>
       <r>   -3.9743    1.0000 </r>
       <r>   -3.8788    1.0000 </r>
       <r>   -3.8786    1.0000 </r>
       <r>   -3.8778    1.0000 </r>
       <r>   -3.8777    1.0000 </r>
       <r>   -3.8777    1.0000 </r>
       <r>   -3.8775    1.0000 </r>
       <r>   -3.8005    1.0000 </r>
       <r>   -3.8000    1.0000 </r>
       <r>   -3.7997    1.0000 </r>
       <r>   -3.7996    1.0000 </r>
       <r>   -3.7996    1.0000 </r>
       <r>   -3.7995    1.0000 </r>
       <r>   -3.7566    1.0000 </r>
       <r>   -3.7561    1.0000 </r>
       <r>   -3.7556    1.0000 </r>
       <r>   -3.7556    1.0000 </r>
       <r>   -3.7556    1.0000 </r>
       <r>   -3.7555    1.0000 </r>
       <r>   -3.5939    1.0000 </r>
       <r>   -3.5937    1.0000 </r>
       <r>   -3.5936    1.0000 </r>
       <r>   -3.5936    1.0000 </r>
       <r>   -3.5933    1.0000 </r>
       <r>   -3.5932    1.0000 </r>
       <r>   -3.4216    1.0000 </r>
       <r>   -3.4214    1.0000 </r>
       <r>   -3.4212    1.0000 </r>
       <r>   -3.4209    1.0000 </r>
       <r>   -3.4209    1.0000 </r>
       <r>   -3.4207    1.0000 </r>
       <r>   -3.3940    1.0000 </r>
       <r>   -3.3931    1.0000 </r>
       <r>   -3.3922    1.0000 </r>
       <r>   -3.3921    1.0000 </r>
       <r>   -3.3921    1.0000 </r>
       <r>   -3.3921    1.0000 </r>
       <r>   -3.3896    1.0000 </r>
       <r>   -3.3893    1.0000 </r>
       <r>   -3.3889    1.0000 </r>
       <r>   -3.3888    1.0000 </r>
       <r>   -3.3887    1.0000 </r>
       <r>   -3.3879    1.0000 </r>
       <r>   -3.3443    1.0000 </r>
       <r>   -3.3437    1.0000 </r>
       <r>   -3.3430    1.0000 </r>
       <r>   -3.3429    1.0000 </r>
       <r>   -3.3428    1.0000 </r>
       <r>   -3.3428    1.0000 </r>
       <r>   -3.3343    1.0000 </r>
       <r>   -3.3341    1.0000 </r>
       <r>   -3.3338    1.0000 </r>
       <r>   -3.3336    1.0000 </r>
       <r>   -3.3336    1.0000 </r>
       <r>   -3.3335    1.0000 </r>
       <r>   -3.0590    1.0000 </r>
       <r>   -3.0588    1.0000 </r>
       <r>   -3.0587    1.0000 </r>
       <r>   -3.0586    1.0000 </r>
       <r>   -3.0586    1.0000 </r>
       <r>   -3.0585    1.0000 </r>
       <r>   -2.9205    1.0000 </r>
       <r>   -2.9203    1.0000 </r>
       <r>   -2.9198    1.0000 </r>
       <r>   -2.9197    1.0000 </r>
       <r>   -2.9196    1.0000 </r>
       <r>   -2.9195    1.0000 </r>
       <r>   -2.9066    1.0000 </r>
       <r>   -2.9065    1.0000 </r>
       <r>   -2.8988    1.0000 </r>
       <r>   -2.8987    1.0000 </r>
       <r>   -2.7565    1.0000 </r>
       <r>   -2.5644    1.0000 </r>
       <r>   -2.5640    1.0000 </r>
       <r>   -2.5633    1.0000 </r>
       <r>   -2.5632    1.0000 </r>
       <r>   -2.5631    1.0000 </r>
       <r>   -2.5629    1.0000 </r>
       <r>   -2.5617    1.0000 </r>
       <r>   -2.5615    1.0000 </r>
       <r>   -2.5613    1.0000 </r>
       <r>   -2.5612    1.0000 </r>
       <r>   -2.5611    1.0000 </r>
       <r>   -2.5606    1.0000 </r>
       <r>   -2.5204    1.0000 </r>
       <r>   -2.5194    1.0000 </r>
       <r>   -2.5187    1.0000 </r>
       <r>   -2.5186    1.0000 </r>
       <r>   -2.5186    1.0000 </r>
       <r>   -2.5186    1.0000 </r>
       <r>   -2.4793    1.0000 </r>
       <r>   -2.4784    1.0000 </r>
       <r>   -2.4780    1.0000 </r>
       <r>   -2.4779    1.0000 </r>
       <r>   -2.4779    1.0000 </r>
       <r>   -2.4778    1.0000 </r>
       <r>   -2.3804    1.0000 </r>
       <r>   -2.3804    1.0000 </r>
       <r>   -2.3803    1.0000 </r>
       <r>   -2.3803    1.0000 </r>
       <r>   -2.3801    1.0000 </r>
       <r>   -2.3794    1.0000 </r>
       <r>   -2.2945    1.0000 </r>
[...]
       <r>   -23.0189     0.0000   300.0000 </r>
       <r>   -22.8786     0.0000   300.0000 </r>
       <r>   -22.7383     0.0000   300.0000 </r>
       <r>   -22.5980     0.0000   300.0000 </r>
       <r>   -22.4576     0.0000   300.0000 </r>
       <r>   -22.3173     0.0000   300.0000 </r>
       <r>   -22.1770     0.0000   300.0000 </r>
       <r>   -22.0366     0.0000   300.0000 </r>
       <r>   -21.8963     0.0000   300.0000 </r>
       <r>   -21.7560     0.0000   300.0000 </r>
       <r>   -21.6156     0.0000   300.0000 </r>
       <r>   -21.4753     0.0000   300.0000 </r>
       <r>   -21.3350     0.0000   300.0000 </r>
       <r>   -21.1946     0.0000   300.0000 </r>
       <r>   -21.0543     0.0000   300.0000 </r>
       <r>   -20.9140     0.0000   300.0000 </r>
       <r>   -20.7736     0.0000   300.0000 </r>
       <r>   -20.6333     0.0000   300.0000 </r>
       <r>   -20.4930     0.0000   300.0000 </r>
       <r>   -20.3526     0.0000   300.0000 </r>
       <r>   -20.2123     0.0000   300.0000 </r>
       <r>   -20.0720     0.0000   300.0000 </r>
       <r>   -19.9316     0.0000   300.0000 </r>
       <r>   -19.7913     0.0000   300.0000 </r>
       <r>   -19.6510     0.0000   300.0000 </r>
       <r>   -19.5106     0.0000   300.0000 </r>
       <r>   -19.3703     0.0000   300.0000 </r>
       <r>   -19.2300     0.0000   300.0000 </r>
       <r>   -19.0897     0.0000   300.0000 </r>
       <r>   -18.9493     0.0000   300.0000 </r>
       <r>   -18.8090     0.0000   300.0000 </r>
       <r>   -18.6687     0.0000   300.0000 </r>
       <r>   -18.5283     0.0000   300.0000 </r>
       <r>   -18.3880     0.0000   300.0000 </r>
       <r>   -18.2477     0.0000   300.0000 </r>
       <r>   -18.1073     0.0000   300.0000 </r>
       <r>   -17.9670     0.0000   300.0000 </r>
       <r>   -17.8267     0.0000   300.0000 </r>
       <r>   -17.6863     0.0000   300.0000 </r>
       <r>   -17.5460     0.0000   300.0000 </r>
       <r>   -17.4057     0.0000   300.0000 </r>
       <r>   -17.2653     0.0000   300.0000 </r>
       <r>   -17.1250     0.0000   300.0000 </r>
       <r>   -16.9847     0.0000   300.0000 </r>
       <r>   -16.8443     0.0000   300.0000 </r>
       <r>   -16.7040     0.0000   300.0000 </r>
       <r>   -16.5637     0.0000   300.0000 </r>
       <r>   -16.4233     0.0000   300.0000 </r>
       <r>   -16.2830     0.0000   300.0000 </r>
       <r>   -16.1427     0.0000   300.0000 </r>
       <r>   -16.0024     0.0000   300.0000 </r>
       <r>   -15.8620     0.0000   300.0000 </r>
       <r>   -15.7217     0.0000   300.0000 </r>
       <r>   -15.5814     0.0000   300.0000 </r>
       <r>   -15.4410     0.0000   300.0000 </r>
       <r>   -15.3007     0.0000   300.0000 </r>
       <r>   -15.1604     0.0000   300.0000 </r>
       <r>   -15.0200     0.0000   300.0000 </r>
       <r>   -14.8797     0.0000   300.0000 </r>
       <r>   -14.7394     0.0000   300.0000 </r>
       <r>   -14.5990     3.3389   300.4686 </r>
       <r>   -14.4587     1.7668   300.7479 </r>
       <r>   -14.3184     0.0000   304.0000 </r>
       <r>   -14.1780     0.0000   307.0000 </r>
       <r>   -14.0377     0.0000   310.0000 </r>
       <r>   -13.8974    21.3779   316.0000 </r>
       <r>   -13.7570    21.3779   319.0000 </r>
       <r>   -13.6167     0.6556   319.0920 </r>
       <r>   -13.4764     0.0000   325.0000 </r>
       <r>   -13.3360    21.3779   334.0000 </r>
       <r>   -13.1957    30.3047   338.2527 </r>
       <r>   -13.0554    12.4316   342.2446 </r>
       <r>   -12.9150    86.7336   358.6715 </r>
       <r>   -12.7747   107.6967   377.1133 </r>
       <r>   -12.6344    40.1016   388.6275 </r>
       <r>   -12.4941   164.6661   418.1079 </r>
       <r>   -12.3537   165.5936   446.7381 </r>
       <r>   -12.2134   150.2533   484.0853 </r>
       <r>   -12.0731    42.7558   500.0000 </r>
       <r>   -11.9327     0.0000   500.0000 </r>
       <r>   -11.7924     0.0000   500.0000 </r>
       <r>   -11.6521     0.0000   500.0000 </r>
       <r>   -11.5117     0.0000   500.0000 </r>
       <r>   -11.3714     0.0000   500.0000 </r>
       <r>   -11.2311     0.0000   500.0000 </r>
       <r>   -11.0907     0.0000   500.0000 </r>
       <r>   -10.9504     0.0000   500.0000 </r>
       <r>   -10.8101     0.0000   500.0000 </r>
       <r>   -10.6697     0.0000   500.0000 </r>
       <r>   -10.5294     0.0000   500.0000 </r>
       <r>   -10.3891     0.0000   500.0000 </r>
       <r>   -10.2487     0.0000   500.0000 </r>
       <r>   -10.1084     0.0000   500.0000 </r>
       <r>    -9.9681     0.0000   500.0000 </r>
       <r>    -9.8277     0.0000   500.0000 </r>
       <r>    -9.6874     0.0000   500.0000 </r>
       <r>    -9.5471     0.0000   500.0000 </r>
       <r>    -9.4067     0.0000   500.0000 </r>
       <r>    -9.2664     0.0000   500.0000 </r>
       <r>    -9.1261     0.0000   500.0000 </r>
       <r>    -8.9858     0.0000   500.0000 </r>
       <r>    -8.8454     0.0000   500.0000 </r>
       <r>    -8.7051     0.0000   500.0000 </r>
       <r>    -8.5648     0.0000   500.0000 </r>
       <r>    -8.4244     0.0000   500.0000 </r>
       <r>    -8.2841     0.0000   500.0000 </r>
       <r>    -8.1438     0.0000   500.0000 </r>
       <r>    -8.0034     0.0000   500.0000 </r>
       <r>    -7.8631     0.0000   500.0000 </r>
       <r>    -7.7228     0.0000   500.0000 </r>
       <r>    -7.5824     0.0000   500.0000 </r>
       <r>    -7.4421     0.0000   500.0000 </r>
       <r>    -7.3018     0.0000   500.0000 </r>
       <r>    -7.1614     0.0000   500.0000 </r>
       <r>    -7.0211     0.0000   500.0000 </r>
       <r>    -6.8808     0.0000   500.0000 </r>
       <r>    -6.7404     0.0000   500.0000 </r>
       <r>    -6.6001     0.0000   500.0000 </r>
       <r>    -6.4598     0.0003   500.0000 </r>
       <r>    -6.3194    10.6889   502.0000 </r>
       <r>    -6.1791    26.7973   505.7605 </r>
       <r>    -6.0388     0.0000   515.5000 </r>
       <r>    -5.8984    87.1248   527.7264 </r>
       <r>    -5.7581    89.2593   552.0259 </r>
       <r>    -5.6178   165.4317   578.2154 </r>
       <r>    -5.4775     0.0000   588.0000 </r>
       <r>    -5.3371   202.1831   619.3728 </r>
       <r>    -5.1968    74.9398   639.0164 </r>
       <r>    -5.0565     0.0000   642.0000 </r>
       <r>    -4.9161    33.3171   646.6755 </r>
       <r>    -4.7758     0.2479   651.0348 </r>
       <r>    -4.6355    40.1142   662.6293 </r>
       <r>    -4.4951    45.5384   673.8905 </r>
       <r>    -4.3548     4.4139   680.1194 </r>
       <r>    -4.2145   124.6770   711.9962 </r>
       <r>    -4.0741    64.1336   732.0000 </r>
       <r>    -3.9338   169.1858   761.7422 </r>
       <r>    -3.7935    17.4503   767.4488 </r>
       <r>    -3.6531    21.3779   792.0000 </r>
       <r>    -3.5128   114.2825   811.0375 </r>
       <r>    -3.3725   135.9891   838.0836 </r>
       <r>    -3.2321    73.6125   859.3302 </r>
       <r>    -3.0918    64.4342   873.0422 </r>
       <r>    -2.9515    42.7558   891.0000 </r>
       <r>    -2.8111    32.0668   902.0000 </r>
       <r>    -2.6708    42.7558   908.5000 </r>
       <r>    -2.5305    73.0478   918.7509 </r>
       <r>    -2.3901    87.1960   938.7364 </r>
       <r>    -2.2498   113.7857   957.4678 </r>
       <r>    -2.1095    96.0697   974.4816 </r>
       <r>    -1.9692   152.8944  1010.9560 </r>
       <r>    -1.8288    96.6160  1033.0583 </r>
       <r>    -1.6885    78.0423  1048.4518 </r>
       <r>    -1.5482    38.0102  1059.8340 </r>
       <r>    -1.4078    64.1336  1073.0000 </r>
       <r>    -1.2675    43.6858  1082.1305 </r>
       <r>    -1.1272    58.5974  1102.2231 </r>
       <r>    -0.9868   192.8894  1140.5686 </r>
       <r>    -0.8465    13.4598  1145.3888 </r>
       <r>    -0.7062    80.3412  1171.2744 </r>
       <r>    -0.5658    46.2176  1184.4858 </r>
       <r>    -0.4255    62.8724  1193.3230 </r>
       <r>    -0.2852    21.3779  1196.5000 </r>
       <r>    -0.1448     0.0000  1196.5000 </r>
       <r>    -0.0045     0.0005  1196.5001 </r>
       <r>     0.1358     0.0000  1199.5000 </r>
       <r>     0.2762     3.5630  1200.0000 </r>
       <r>     0.4165     0.0000  1200.0000 </r>
       <r>     0.5568     0.0000  1200.0000 </r>
       <r>     0.6972     0.0000  1200.0000 </r>
       <r>     0.8375     0.0000  1200.0000 </r>
       <r>     0.9778     0.0000  1200.0000 </r>
       <r>     1.1182     0.0000  1200.0000 </r>
       <r>     1.2585     0.0000  1200.0000 </r>
       <r>     1.3988     0.0000  1200.0000 </r>
       <r>     1.5391    31.8470  1204.4691 </r>
       <r>     1.6795    19.9541  1211.8002 </r>
       <r>     1.8198     2.9251  1221.4105 </r>
       <r>     1.9601    66.3658  1242.3132 </r>
       <r>     2.1005   129.0208  1269.1057 </r>
       <r>     2.2408   195.2593  1302.4011 </r>
       <r>     2.3811    82.0942  1325.5204 </r>
       <r>     2.5215   215.8544  1368.2913 </r>
       <r>     2.6618    66.8740  1397.8846 </r>
       <r>     2.8021   174.6343  1423.0068 </r>
       <r>     2.9425    28.5017  1436.9997 </r>
       <r>     3.0828     0.0000  1440.0000 </r>
       <r>     3.2231     0.0000  1440.0000 </r>
       <r>     3.3635     0.0000  1440.0000 </r>
       <r>     3.5038     0.0000  1440.0000 </r>
       <r>     3.6441     0.0000  1440.0000 </r>
       <r>     3.7845     0.0000  1440.0000 </r>
       <r>     3.9248     0.0000  1440.0000 </r>
       <r>     4.0651     0.0000  1440.0000 </r>
       <r>     4.2055     0.0000  1440.0000 </r>
       <r>     4.3458     0.0000  1440.0000 </r>
       <r>     4.4861     0.0000  1440.0000 </r>
       <r>     4.6265     0.0000  1440.0000 </r>
       <r>     4.7668     0.0000  1440.0000 </r>
       <r>     4.9071     0.0000  1440.0000 </r>
      </set>
     </set>
    </array>
   </total>
  </dos>
 </calculation>
 <structure name="finalpos" >
  <crystal>
   <varray name="basis" >
    <v>      15.65451448      -0.00000001       0.00000000 </v>
    <v>      -7.82725475      13.55720592       0.00000000 </v>
    <v>       0.00000000       0.00000000      26.00697779 </v>
   </varray>
   <i name="volume">   5519.49928921 </i>
   <varray name="rec_basis" >
    <v>       0.06387934       0.03688074       0.00000000 </v>
    <v>       0.00000000       0.07376151       0.00000000 </v>
    <v>       0.00000000       0.00000000       0.03845122 </v>
   </varray>
  </crystal>
  <varray name="positions" >
   <v>       0.06666667       0.13333333       0.17304109 </v>
   <v>       0.26666667       0.13333333       0.17304109 </v>
   <v>       0.46666667       0.13333333       0.17304109 </v>
   <v>       0.66666667       0.13333333       0.17304109 </v>
   <v>       0.86666667       0.13333333       0.17304109 </v>
   <v>       0.06666667       0.33333333       0.17304109 </v>
   <v>       0.26666667       0.33333333       0.17304109 </v>
   <v>       0.46666667       0.33333333       0.17304109 </v>
   <v>       0.66666667       0.33333333       0.17304109 </v>
   <v>       0.86666667       0.33333333       0.17304109 </v>
   <v>       0.06666667       0.53333333       0.17304109 </v>
   <v>       0.26666667       0.53333333       0.17304109 </v>
   <v>       0.46666667       0.53333333       0.17304109 </v>
   <v>       0.66666667       0.53333333       0.17304109 </v>
   <v>       0.86666667       0.53333333       0.17304109 </v>
   <v>       0.06666667       0.73333333       0.17304109 </v>
   <v>       0.26666667       0.73333333       0.17304109 </v>
   <v>       0.46666667       0.73333333       0.17304109 </v>
   <v>       0.66666667       0.73333333       0.17304109 </v>
   <v>       0.86666667       0.73333333       0.17304109 </v>
   <v>       0.06666667       0.93333333       0.17304109 </v>
   <v>       0.26666667       0.93333333       0.17304109 </v>
   <v>       0.46666667       0.93333333       0.17304109 </v>
   <v>       0.66666667       0.93333333       0.17304109 </v>
   <v>       0.86666667       0.93333333       0.17304109 </v>
   <v>       0.13333333       0.06666667       0.40532935 </v>
   <v>       0.33333333       0.06666667       0.40532935 </v>
   <v>       0.53333333       0.06666667       0.40532935 </v>
   <v>       0.73333333       0.06666667       0.40532935 </v>
   <v>       0.93333333       0.06666667       0.40532935 </v>
   <v>       0.13333333       0.26666667       0.40532935 </v>
   <v>       0.33333333       0.26666667       0.40532935 </v>
   <v>       0.53333333       0.26666667       0.40532935 </v>
   <v>       0.73333333       0.26666667       0.40532935 </v>
   <v>       0.93333333       0.26666667       0.40532935 </v>
   <v>       0.13333333       0.46666667       0.40532935 </v>
   <v>       0.33333333       0.46666667       0.40532935 </v>
   <v>       0.53333333       0.46666667       0.40532935 </v>
   <v>       0.73333333       0.46666667       0.40532935 </v>
   <v>       0.93333333       0.46666667       0.40532935 </v>
   <v>       0.13333333       0.66666667       0.40532935 </v>
   <v>       0.33333333       0.66666667       0.40532935 </v>
   <v>       0.53333333       0.66666667       0.40532935 </v>
   <v>       0.73333333       0.66666667       0.40532935 </v>
   <v>       0.93333333       0.66666667       0.40532935 </v>
   <v>       0.13333333       0.86666667       0.40532935 </v>
   <v>       0.33333333       0.86666667       0.40532935 </v>
   <v>       0.53333333       0.86666667       0.40532935 </v>
   <v>       0.73333333       0.86666667       0.40532935 </v>
   <v>       0.93333333       0.86666667       0.40532935 </v>
   <v>       0.13333333       0.06666667       0.11318662 </v>
   <v>       0.33333333       0.06666667       0.11318662 </v>
   <v>       0.53333333       0.06666667       0.11318662 </v>
   <v>       0.73333333       0.06666667       0.11318662 </v>
   <v>       0.93333333       0.06666667       0.11318662 </v>
   <v>       0.13333333       0.26666667       0.11318662 </v>
   <v>       0.33333333       0.26666667       0.11318662 </v>
   <v>       0.53333333       0.26666667       0.11318662 </v>
   <v>       0.73333333       0.26666667       0.11318662 </v>
   <v>       0.93333333       0.26666667       0.11318662 </v>
   <v>       0.13333333       0.46666667       0.11318662 </v>
   <v>       0.33333333       0.46666667       0.11318662 </v>
   <v>       0.53333333       0.46666667       0.11318662 </v>
   <v>       0.73333333       0.46666667       0.11318662 </v>
   <v>       0.93333333       0.46666667       0.11318662 </v>
   <v>       0.13333333       0.66666667       0.11318662 </v>
   <v>       0.33333333       0.66666667       0.11318662 </v>
   <v>       0.53333333       0.66666667       0.11318662 </v>
   <v>       0.73333333       0.66666667       0.11318662 </v>
   <v>       0.93333333       0.66666667       0.11318662 </v>
   <v>       0.13333333       0.86666667       0.11318662 </v>
   <v>       0.33333333       0.86666667       0.11318662 </v>
   <v>       0.53333333       0.86666667       0.11318662 </v>
   <v>       0.73333333       0.86666667       0.11318662 </v>
   <v>       0.93333333       0.86666667       0.11318662 </v>
   <v>       0.13300390       0.06666667       0.23268557 </v>
   <v>       0.33333333       0.06666667       0.23301500 </v>
   <v>       0.53333333       0.06666667       0.23301500 </v>
   <v>       0.73333333       0.06666667       0.23301500 </v>
   <v>       0.93333333       0.06666667       0.23301500 </v>
   <v>       0.13333333       0.26666667       0.23301500 </v>
   <v>       0.33333333       0.26666667       0.23301500 </v>
   <v>       0.53333333       0.26666667       0.23301500 </v>
   <v>       0.73333333       0.26666667       0.23301500 </v>
   <v>       0.93333333       0.26666667       0.23301500 </v>
   <v>       0.13333333       0.46666667       0.23301500 </v>
   <v>       0.33333333       0.46666667       0.23301500 </v>
   <v>       0.53333333       0.46666667       0.23301500 </v>
   <v>       0.73333333       0.46666667       0.23301500 </v>
   <v>       0.93333333       0.46666667       0.23301500 </v>
   <v>       0.13333333       0.66666667       0.23301500 </v>
   <v>       0.33333333       0.66666667       0.23301500 </v>
   <v>       0.53333333       0.66666667       0.23301500 </v>
   <v>       0.73333333       0.66666667       0.23301500 </v>
   <v>       0.93333333       0.66666667       0.23301500 </v>
   <v>       0.13333333       0.86666667       0.23301500 </v>
   <v>       0.33333333       0.86666667       0.23301500 </v>
   <v>       0.53333333       0.86666667       0.23301500 </v>
   <v>       0.73333333       0.86666667       0.23301500 </v>
   <v>       0.93333333       0.86666667       0.23301500 </v>
   <v>       0.06666667       0.13333333       0.34535543 </v>
   <v>       0.26666667       0.13333333       0.34535543 </v>
   <v>       0.46666667       0.13333333       0.34535543 </v>
   <v>       0.66666667       0.13333333       0.34535543 </v>
   <v>       0.86666667       0.13333333       0.34535543 </v>
   <v>       0.06666667       0.33333333       0.34535543 </v>
   <v>       0.26666667       0.33333333       0.34535543 </v>
   <v>       0.46666667       0.33333333       0.34535543 </v>
   <v>       0.66666667       0.33333333       0.34535543 </v>
   <v>       0.86666667       0.33333333       0.34535543 </v>
   <v>       0.06666667       0.53333333       0.34535543 </v>
   <v>       0.26666667       0.53333333       0.34535543 </v>
   <v>       0.46666667       0.53333333       0.34535543 </v>
   <v>       0.66666667       0.53333333       0.34535543 </v>
   <v>       0.86666667       0.53333333       0.34535543 </v>
   <v>       0.06666667       0.73333333       0.34535543 </v>
   <v>       0.26666667       0.73333333       0.34535543 </v>
   <v>       0.46666667       0.73333333       0.34535543 </v>
   <v>       0.66666667       0.73333333       0.34535543 </v>
   <v>       0.86666667       0.73333333       0.34535543 </v>
   <v>       0.06666667       0.93333333       0.34535543 </v>
   <v>       0.26666667       0.93333333       0.34535543 </v>
   <v>       0.46666667       0.93333333       0.34535543 </v>
   <v>       0.66666667       0.93333333       0.34535543 </v>
   <v>       0.86666667       0.93333333       0.34535543 </v>
   <v>       0.06666667       0.13333333       0.46518382 </v>
   <v>       0.26666667       0.13333333       0.46518382 </v>
   <v>       0.46666667       0.13333333       0.46518382 </v>
   <v>       0.66666667       0.13333333       0.46518382 </v>
   <v>       0.86666667       0.13333333       0.46518382 </v>
   <v>       0.06666667       0.33333333       0.46518382 </v>
   <v>       0.26666667       0.33333333       0.46518382 </v>
   <v>       0.46666667       0.33333333       0.46518382 </v>
   <v>       0.66666667       0.33333333       0.46518382 </v>
   <v>       0.86666667       0.33333333       0.46518382 </v>
   <v>       0.06666667       0.53333333       0.46518382 </v>
   <v>       0.26666667       0.53333333       0.46518382 </v>
   <v>       0.46666667       0.53333333       0.46518382 </v>
   <v>       0.66666667       0.53333333       0.46518382 </v>
   <v>       0.86666667       0.53333333       0.46518382 </v>
   <v>       0.06666667       0.73333333       0.46518382 </v>
   <v>       0.26666667       0.73333333       0.46518382 </v>
   <v>       0.46666667       0.73333333       0.46518382 </v>
   <v>       0.66666667       0.73333333       0.46518382 </v>
   <v>       0.86666667       0.73333333       0.46518382 </v>
   <v>       0.06666667       0.93333333       0.46518382 </v>
   <v>       0.26666667       0.93333333       0.46518382 </v>
   <v>       0.46666667       0.93333333       0.46518382 </v>
   <v>       0.66666667       0.93333333       0.46518382 </v>
   <v>       0.86666667       0.93333333       0.46518382 </v>
  </varray>
 </structure>
</modeling>
